File written on  1Aug2024 at 13:41:22 

calc_only_A  :  F

begin real_lattice
  -2.0382520   0.0000000   2.0382520
   0.0000000   2.0382520   2.0382520
  -2.0382520   2.0382520   0.0000000
end real_lattice

begin recip_lattice
  -1.5413171  -1.5413171   1.5413171
   1.5413171   1.5413171   1.5413171
  -1.5413171   1.5413171  -1.5413171
end recip_lattice

begin kpoints
   125
   -0.00000000    0.00000000    0.00000000
   -0.00000000    0.00000000    0.20000000
   -0.20000000   -0.20000000   -0.20000000
   -0.00000000    0.20000000    0.00000000
    0.20000000    0.00000000    0.00000000
   -0.00000000    0.00000000   -0.20000000
    0.20000000    0.20000000    0.20000000
   -0.00000000   -0.20000000    0.00000000
   -0.20000000    0.00000000    0.00000000
   -0.00000000    0.00000000    0.40000000
   -0.40000000   -0.40000000   -0.40000000
   -0.00000000    0.40000000    0.00000000
    0.40000000    0.00000000    0.00000000
   -0.00000000    0.00000000   -0.40000000
    0.40000000    0.40000000    0.40000000
   -0.00000000   -0.40000000    0.00000000
   -0.40000000    0.00000000    0.00000000
   -0.00000000    0.20000000    0.20000000
   -0.00000000   -0.20000000   -0.20000000
   -0.20000000    0.00000000   -0.20000000
    0.20000000    0.00000000    0.20000000
    0.20000000    0.20000000    0.00000000
   -0.20000000   -0.20000000    0.00000000
   -0.00000000    0.20000000    0.40000000
   -0.20000000   -0.40000000   -0.40000000
   -0.00000000    0.40000000    0.20000000
    0.20000000   -0.20000000   -0.20000000
   -0.20000000    0.00000000   -0.40000000
    0.40000000    0.20000000    0.40000000
    0.20000000   -0.20000000    0.20000000
   -0.40000000    0.00000000   -0.20000000
   -0.00000000   -0.40000000   -0.20000000
   -0.00000000   -0.20000000   -0.40000000
   -0.20000000    0.20000000    0.20000000
    0.20000000    0.40000000    0.40000000
    0.20000000    0.20000000   -0.20000000
   -0.40000000   -0.20000000    0.00000000
    0.40000000    0.40000000    0.20000000
   -0.20000000   -0.40000000    0.00000000
    0.40000000    0.20000000    0.00000000
    0.20000000    0.40000000    0.00000000
   -0.40000000   -0.40000000   -0.20000000
   -0.20000000   -0.20000000    0.20000000
   -0.40000000   -0.20000000   -0.40000000
    0.20000000    0.00000000    0.40000000
    0.40000000    0.00000000    0.20000000
   -0.20000000    0.20000000   -0.20000000
   -0.00000000    0.20000000   -0.40000000
    0.60000000    0.40000000    0.40000000
   -0.00000000   -0.40000000    0.20000000
   -0.60000000   -0.20000000   -0.20000000
   -0.20000000    0.00000000    0.40000000
   -0.40000000   -0.60000000   -0.40000000
    0.20000000    0.60000000    0.20000000
    0.40000000    0.00000000   -0.20000000
   -0.00000000    0.40000000   -0.20000000
   -0.00000000   -0.20000000    0.40000000
    0.60000000    0.20000000    0.20000000
   -0.60000000   -0.40000000   -0.40000000
    0.20000000    0.20000000    0.60000000
    0.40000000   -0.20000000    0.00000000
   -0.40000000   -0.40000000   -0.60000000
   -0.20000000    0.40000000    0.00000000
   -0.40000000    0.20000000    0.00000000
    0.20000000   -0.40000000    0.00000000
    0.40000000    0.40000000    0.60000000
   -0.20000000   -0.20000000   -0.60000000
    0.40000000    0.60000000    0.40000000
    0.20000000    0.00000000   -0.40000000
   -0.40000000    0.00000000    0.20000000
   -0.20000000   -0.60000000   -0.20000000
   -0.00000000    0.20000000   -0.20000000
    0.40000000    0.20000000    0.20000000
   -0.00000000   -0.20000000    0.20000000
   -0.40000000   -0.20000000   -0.20000000
   -0.20000000    0.00000000    0.20000000
   -0.20000000   -0.40000000   -0.20000000
    0.20000000    0.40000000    0.20000000
    0.20000000    0.00000000   -0.20000000
    0.20000000    0.20000000    0.40000000
    0.20000000   -0.20000000    0.00000000
   -0.20000000   -0.20000000   -0.40000000
   -0.20000000    0.20000000    0.00000000
   -0.00000000    0.40000000    0.40000000
   -0.00000000   -0.40000000   -0.40000000
   -0.40000000    0.00000000   -0.40000000
    0.40000000    0.00000000    0.40000000
    0.40000000    0.40000000    0.00000000
   -0.40000000   -0.40000000    0.00000000
   -0.00000000    0.40000000   -0.40000000
    0.80000000    0.40000000    0.40000000
   -0.00000000   -0.40000000    0.40000000
   -0.80000000   -0.40000000   -0.40000000
   -0.40000000    0.00000000    0.40000000
   -0.40000000   -0.80000000   -0.40000000
    0.40000000    0.80000000    0.40000000
    0.40000000    0.00000000   -0.40000000
    0.40000000    0.40000000    0.80000000
    0.40000000   -0.40000000    0.00000000
   -0.40000000   -0.40000000   -0.80000000
   -0.40000000    0.40000000    0.00000000
    0.20000000    0.40000000   -0.40000000
    0.80000000    0.60000000    0.40000000
   -0.20000000   -0.60000000    0.20000000
   -0.80000000   -0.40000000   -0.20000000
   -0.40000000   -0.20000000    0.40000000
   -0.60000000   -0.80000000   -0.40000000
    0.40000000    0.80000000    0.20000000
    0.60000000    0.20000000   -0.20000000
   -0.20000000    0.40000000   -0.40000000
    0.20000000   -0.20000000    0.60000000
    0.80000000    0.20000000    0.40000000
   -0.80000000   -0.40000000   -0.60000000
    0.20000000    0.40000000    0.80000000
    0.40000000   -0.40000000   -0.20000000
   -0.40000000   -0.60000000   -0.80000000
   -0.20000000    0.60000000    0.20000000
   -0.60000000    0.20000000   -0.20000000
    0.40000000   -0.40000000    0.20000000
    0.60000000    0.40000000    0.80000000
   -0.40000000   -0.20000000   -0.80000000
    0.40000000    0.80000000    0.60000000
    0.20000000   -0.20000000   -0.60000000
   -0.40000000    0.20000000    0.40000000
   -0.20000000   -0.80000000   -0.40000000
end kpoints

begin projections
     8
   0.00000    0.00000    0.00000     0  1  1
    0.0000000  0.0000000  1.0000000   1.0000000  0.0000000  0.0000000    1.00
   0.00000    0.00000    0.00000     1  1  1
    0.0000000  0.0000000  1.0000000   1.0000000  0.0000000  0.0000000    1.00
   0.00000    0.00000    0.00000     1  2  1
    0.0000000  0.0000000  1.0000000   1.0000000  0.0000000  0.0000000    1.00
   0.00000    0.00000    0.00000     1  3  1
    0.0000000  0.0000000  1.0000000   1.0000000  0.0000000  0.0000000    1.00
   0.50000   -0.50000   -0.50000     0  1  1
    0.0000000  0.0000000  1.0000000   1.0000000  0.0000000  0.0000000    1.00
   0.50000   -0.50000   -0.50000     1  1  1
    0.0000000  0.0000000  1.0000000   1.0000000  0.0000000  0.0000000    1.00
   0.50000   -0.50000   -0.50000     1  2  1
    0.0000000  0.0000000  1.0000000   1.0000000  0.0000000  0.0000000    1.00
   0.50000   -0.50000   -0.50000     1  3  1
    0.0000000  0.0000000  1.0000000   1.0000000  0.0000000  0.0000000    1.00
end projections

begin nnkpts
   8
     1     2      0   0   0
     1     3      0   0   0
     1     4      0   0   0
     1     5      0   0   0
     1     6      0   0   0
     1     7      0   0   0
     1     8      0   0   0
     1     9      0   0   0
     2     1      0   0   0
     2    10      0   0   0
     2    18      0   0   0
     2    21      0   0   0
     2    23      0   0   0
     2    74      0   0   0
     2    76      0   0   0
     2    80      0   0   0
     3     1      0   0   0
     3    11      0   0   0
     3    19      0   0   0
     3    20      0   0   0
     3    23      0   0   0
     3    75      0   0   0
     3    77      0   0   0
     3    82      0   0   0
     4     1      0   0   0
     4    12      0   0   0
     4    18      0   0   0
     4    20      0   0   0
     4    22      0   0   0
     4    72      0   0   0
     4    78      0   0   0
     4    83      0   0   0
     5     1      0   0   0
     5    13      0   0   0
     5    19      0   0   0
     5    21      0   0   0
     5    22      0   0   0
     5    73      0   0   0
     5    79      0   0   0
     5    81      0   0   0
     6     1      0   0   0
     6    14      0   0   0
     6    19      0   0   0
     6    20      0   0   0
     6    22      0   0   0
     6    72      0   0   0
     6    79      0   0   0
     6    82      0   0   0
     7     1      0   0   0
     7    15      0   0   0
     7    18      0   0   0
     7    21      0   0   0
     7    22      0   0   0
     7    73      0   0   0
     7    78      0   0   0
     7    80      0   0   0
     8     1      0   0   0
     8    16      0   0   0
     8    19      0   0   0
     8    21      0   0   0
     8    23      0   0   0
     8    74      0   0   0
     8    77      0   0   0
     8    81      0   0   0
     9     1      0   0   0
     9    17      0   0   0
     9    18      0   0   0
     9    20      0   0   0
     9    23      0   0   0
     9    75      0   0   0
     9    76      0   0   0
     9    83      0   0   0
    10     2      0   0   0
    10    24      0   0   0
    10    43      0   0   0
    10    45      0   0   0
    10    52      0   0   0
    10    57      0   0   0
    10    60      0   0   0
    10    14      0   0   1
    11     3      0   0   0
    11    25      0   0   0
    11    42      0   0   0
    11    44      0   0   0
    11    53      0   0   0
    11    59      0   0   0
    11    62      0   0   0
    11    15     -1  -1  -1
    12     4      0   0   0
    12    26      0   0   0
    12    41      0   0   0
    12    47      0   0   0
    12    54      0   0   0
    12    56      0   0   0
    12    63      0   0   0
    12    16      0   1   0
    13     5      0   0   0
    13    27      0   0   0
    13    40      0   0   0
    13    46      0   0   0
    13    55      0   0   0
    13    58      0   0   0
    13    61      0   0   0
    13    17      1   0   0
    14     6      0   0   0
    14    28      0   0   0
    14    33      0   0   0
    14    36      0   0   0
    14    48      0   0   0
    14    67      0   0   0
    14    69      0   0   0
    14    10      0   0  -1
    15     7      0   0   0
    15    29      0   0   0
    15    35      0   0   0
    15    38      0   0   0
    15    49      0   0   0
    15    66      0   0   0
    15    68      0   0   0
    15    11      1   1   1
    16     8      0   0   0
    16    30      0   0   0
    16    32      0   0   0
    16    39      0   0   0
    16    50      0   0   0
    16    65      0   0   0
    16    71      0   0   0
    16    12      0  -1   0
    17     9      0   0   0
    17    31      0   0   0
    17    34      0   0   0
    17    37      0   0   0
    17    51      0   0   0
    17    64      0   0   0
    17    70      0   0   0
    17    13     -1   0   0
    18     2      0   0   0
    18     4      0   0   0
    18     7      0   0   0
    18     9      0   0   0
    18    24      0   0   0
    18    26      0   0   0
    18    34      0   0   0
    18    35      0   0   0
    19     3      0   0   0
    19     5      0   0   0
    19     6      0   0   0
    19     8      0   0   0
    19    25      0   0   0
    19    27      0   0   0
    19    32      0   0   0
    19    33      0   0   0
    20     3      0   0   0
    20     4      0   0   0
    20     6      0   0   0
    20     9      0   0   0
    20    28      0   0   0
    20    31      0   0   0
    20    44      0   0   0
    20    47      0   0   0
    21     2      0   0   0
    21     5      0   0   0
    21     7      0   0   0
    21     8      0   0   0
    21    29      0   0   0
    21    30      0   0   0
    21    45      0   0   0
    21    46      0   0   0
    22     4      0   0   0
    22     5      0   0   0
    22     6      0   0   0
    22     7      0   0   0
    22    36      0   0   0
    22    38      0   0   0
    22    40      0   0   0
    22    41      0   0   0
    23     2      0   0   0
    23     3      0   0   0
    23     8      0   0   0
    23     9      0   0   0
    23    37      0   0   0
    23    39      0   0   0
    23    42      0   0   0
    23    43      0   0   0
    24    10      0   0   0
    24    18      0   0   0
    24    76      0   0   0
    24    80      0   0   0
    24    84      0   0   0
    24    48      0   0   1
    24   102      0   0   1
    24   112     -1   0   0
    25    11      0   0   0
    25    19      0   0   0
    25    77      0   0   0
    25    82      0   0   0
    25    85      0   0   0
    25   110      0  -1   0
    25    49     -1  -1  -1
    25   103     -1  -1  -1
    26    12      0   0   0
    26    18      0   0   0
    26    78      0   0   0
    26    83      0   0   0
    26    84      0   0   0
    26   113      1   1   1
    26    50      0   1   0
    26   104      0   1   0
    27    13      0   0   0
    27    19      0   0   0
    27    79      0   0   0
    27    81      0   0   0
    27    85      0   0   0
    27    51      1   0   0
    27   105      1   0   0
    27   111      0   0  -1
    28    14      0   0   0
    28    20      0   0   0
    28    72      0   0   0
    28    82      0   0   0
    28    86      0   0   0
    28   125      0   1   0
    28    52      0   0  -1
    28   106      0   0  -1
    29    15      0   0   0
    29    21      0   0   0
    29    73      0   0   0
    29    80      0   0   0
    29    87      0   0   0
    29    53      1   1   1
    29   107      1   1   1
    29   124      1   0   0
    30    16      0   0   0
    30    21      0   0   0
    30    74      0   0   0
    30    81      0   0   0
    30    87      0   0   0
    30   123      0   0   1
    30    54      0  -1   0
    30   108      0  -1   0
    31    17      0   0   0
    31    20      0   0   0
    31    75      0   0   0
    31    83      0   0   0
    31    86      0   0   0
    31    55     -1   0   0
    31   109     -1   0   0
    31   122     -1  -1  -1
    32    16      0   0   0
    32    19      0   0   0
    32    77      0   0   0
    32    81      0   0   0
    32    85      0   0   0
    32   105      1   0   0
    32    56      0  -1   0
    32   110      0  -1   0
    33    14      0   0   0
    33    19      0   0   0
    33    79      0   0   0
    33    82      0   0   0
    33    85      0   0   0
    33    57      0   0  -1
    33   111      0   0  -1
    33   103     -1  -1  -1
    34    17      0   0   0
    34    18      0   0   0
    34    76      0   0   0
    34    83      0   0   0
    34    84      0   0   0
    34   104      0   1   0
    34    58     -1   0   0
    34   112     -1   0   0
    35    15      0   0   0
    35    18      0   0   0
    35    78      0   0   0
    35    80      0   0   0
    35    84      0   0   0
    35    59      1   1   1
    35   113      1   1   1
    35   102      0   0   1
    36    14      0   0   0
    36    22      0   0   0
    36    72      0   0   0
    36    79      0   0   0
    36    88      0   0   0
    36   118      1   0   0
    36    60      0   0  -1
    36   114      0   0  -1
    37    17      0   0   0
    37    23      0   0   0
    37    75      0   0   0
    37    76      0   0   0
    37    89      0   0   0
    37   121      0   0   1
    37    61     -1   0   0
    37   115     -1   0   0
    38    15      0   0   0
    38    22      0   0   0
    38    73      0   0   0
    38    78      0   0   0
    38    88      0   0   0
    38    62      1   1   1
    38   116      1   1   1
    38   119      0   1   0
    39    16      0   0   0
    39    23      0   0   0
    39    74      0   0   0
    39    77      0   0   0
    39    89      0   0   0
    39    63      0  -1   0
    39   117      0  -1   0
    39   120     -1  -1  -1
    40    13      0   0   0
    40    22      0   0   0
    40    73      0   0   0
    40    79      0   0   0
    40    88      0   0   0
    40   116      1   1   1
    40    64      1   0   0
    40   118      1   0   0
    41    12      0   0   0
    41    22      0   0   0
    41    72      0   0   0
    41    78      0   0   0
    41    88      0   0   0
    41    65      0   1   0
    41   119      0   1   0
    41   114      0   0  -1
    42    11      0   0   0
    42    23      0   0   0
    42    75      0   0   0
    42    77      0   0   0
    42    89      0   0   0
    42   115     -1   0   0
    42    66     -1  -1  -1
    42   120     -1  -1  -1
    43    10      0   0   0
    43    23      0   0   0
    43    74      0   0   0
    43    76      0   0   0
    43    89      0   0   0
    43    67      0   0   1
    43   121      0   0   1
    43   117      0  -1   0
    44    11      0   0   0
    44    20      0   0   0
    44    75      0   0   0
    44    82      0   0   0
    44    86      0   0   0
    44   106      0   0  -1
    44    68     -1  -1  -1
    44   122     -1  -1  -1
    45    10      0   0   0
    45    21      0   0   0
    45    74      0   0   0
    45    80      0   0   0
    45    87      0   0   0
    45   107      1   1   1
    45    69      0   0   1
    45   123      0   0   1
    46    13      0   0   0
    46    21      0   0   0
    46    73      0   0   0
    46    81      0   0   0
    46    87      0   0   0
    46    70      1   0   0
    46   124      1   0   0
    46   108      0  -1   0
    47    12      0   0   0
    47    20      0   0   0
    47    72      0   0   0
    47    83      0   0   0
    47    86      0   0   0
    47    71      0   1   0
    47   125      0   1   0
    47   109     -1   0   0
    48    14      0   0   0
    48    72      0   0   0
    48    90      0   0   0
    48   125      0   1   0
    48    24      0   0  -1
    48    52      0   0  -1
    48    60      0   0  -1
    48   114      0   0  -1
    49    15      0   0   0
    49    73      0   0   0
    49    91      0   0   0
    49    25      1   1   1
    49    53      1   1   1
    49    62      1   1   1
    49   116      1   1   1
    49   124      1   0   0
    50    16      0   0   0
    50    74      0   0   0
    50    92      0   0   0
    50   123      0   0   1
    50    26      0  -1   0
    50    54      0  -1   0
    50    63      0  -1   0
    50   117      0  -1   0
    51    17      0   0   0
    51    75      0   0   0
    51    93      0   0   0
    51    27     -1   0   0
    51    55     -1   0   0
    51    61     -1   0   0
    51   115     -1   0   0
    51   122     -1  -1  -1
    52    10      0   0   0
    52    76      0   0   0
    52    94      0   0   0
    52    28      0   0   1
    52    48      0   0   1
    52    67      0   0   1
    52   121      0   0   1
    52   112     -1   0   0
    53    11      0   0   0
    53    77      0   0   0
    53    95      0   0   0
    53   110      0  -1   0
    53    29     -1  -1  -1
    53    49     -1  -1  -1
    53    66     -1  -1  -1
    53   120     -1  -1  -1
    54    12      0   0   0
    54    78      0   0   0
    54    96      0   0   0
    54   113      1   1   1
    54    30      0   1   0
    54    50      0   1   0
    54    65      0   1   0
    54   119      0   1   0
    55    13      0   0   0
    55    79      0   0   0
    55    97      0   0   0
    55    31      1   0   0
    55    51      1   0   0
    55    64      1   0   0
    55   118      1   0   0
    55   111      0   0  -1
    56    12      0   0   0
    56    72      0   0   0
    56    90      0   0   0
    56    32      0   1   0
    56    65      0   1   0
    56    71      0   1   0
    56   125      0   1   0
    56   114      0   0  -1
    57    10      0   0   0
    57    74      0   0   0
    57    92      0   0   0
    57    33      0   0   1
    57    67      0   0   1
    57    69      0   0   1
    57   123      0   0   1
    57   117      0  -1   0
    58    13      0   0   0
    58    73      0   0   0
    58    91      0   0   0
    58   116      1   1   1
    58    34      1   0   0
    58    64      1   0   0
    58    70      1   0   0
    58   124      1   0   0
    59    11      0   0   0
    59    75      0   0   0
    59    93      0   0   0
    59   115     -1   0   0
    59    35     -1  -1  -1
    59    66     -1  -1  -1
    59    68     -1  -1  -1
    59   122     -1  -1  -1
    60    10      0   0   0
    60    80      0   0   0
    60    98      0   0   0
    60   107      1   1   1
    60    36      0   0   1
    60    48      0   0   1
    60    69      0   0   1
    60   102      0   0   1
    61    13      0   0   0
    61    81      0   0   0
    61    99      0   0   0
    61    37      1   0   0
    61    51      1   0   0
    61    70      1   0   0
    61   105      1   0   0
    61   108      0  -1   0
    62    11      0   0   0
    62    82      0   0   0
    62   100      0   0   0
    62   106      0   0  -1
    62    38     -1  -1  -1
    62    49     -1  -1  -1
    62    68     -1  -1  -1
    62   103     -1  -1  -1
    63    12      0   0   0
    63    83      0   0   0
    63   101      0   0   0
    63    39      0   1   0
    63    50      0   1   0
    63    71      0   1   0
    63   104      0   1   0
    63   109     -1   0   0
    64    17      0   0   0
    64    83      0   0   0
    64   101      0   0   0
    64   104      0   1   0
    64    40     -1   0   0
    64    55     -1   0   0
    64    58     -1   0   0
    64   109     -1   0   0
    65    16      0   0   0
    65    81      0   0   0
    65    99      0   0   0
    65   105      1   0   0
    65    41      0  -1   0
    65    54      0  -1   0
    65    56      0  -1   0
    65   108      0  -1   0
    66    15      0   0   0
    66    80      0   0   0
    66    98      0   0   0
    66    42      1   1   1
    66    53      1   1   1
    66    59      1   1   1
    66   107      1   1   1
    66   102      0   0   1
    67    14      0   0   0
    67    82      0   0   0
    67   100      0   0   0
    67    43      0   0  -1
    67    52      0   0  -1
    67    57      0   0  -1
    67   106      0   0  -1
    67   103     -1  -1  -1
    68    15      0   0   0
    68    78      0   0   0
    68    96      0   0   0
    68    44      1   1   1
    68    59      1   1   1
    68    62      1   1   1
    68   113      1   1   1
    68   119      0   1   0
    69    14      0   0   0
    69    79      0   0   0
    69    97      0   0   0
    69   118      1   0   0
    69    45      0   0  -1
    69    57      0   0  -1
    69    60      0   0  -1
    69   111      0   0  -1
    70    17      0   0   0
    70    76      0   0   0
    70    94      0   0   0
    70   121      0   0   1
    70    46     -1   0   0
    70    58     -1   0   0
    70    61     -1   0   0
    70   112     -1   0   0
    71    16      0   0   0
    71    77      0   0   0
    71    95      0   0   0
    71    47      0  -1   0
    71    56      0  -1   0
    71    63      0  -1   0
    71   110      0  -1   0
    71   120     -1  -1  -1
    72     4      0   0   0
    72     6      0   0   0
    72    28      0   0   0
    72    36      0   0   0
    72    41      0   0   0
    72    47      0   0   0
    72    48      0   0   0
    72    56      0   0   0
    73     5      0   0   0
    73     7      0   0   0
    73    29      0   0   0
    73    38      0   0   0
    73    40      0   0   0
    73    46      0   0   0
    73    49      0   0   0
    73    58      0   0   0
    74     2      0   0   0
    74     8      0   0   0
    74    30      0   0   0
    74    39      0   0   0
    74    43      0   0   0
    74    45      0   0   0
    74    50      0   0   0
    74    57      0   0   0
    75     3      0   0   0
    75     9      0   0   0
    75    31      0   0   0
    75    37      0   0   0
    75    42      0   0   0
    75    44      0   0   0
    75    51      0   0   0
    75    59      0   0   0
    76     2      0   0   0
    76     9      0   0   0
    76    24      0   0   0
    76    34      0   0   0
    76    37      0   0   0
    76    43      0   0   0
    76    52      0   0   0
    76    70      0   0   0
    77     3      0   0   0
    77     8      0   0   0
    77    25      0   0   0
    77    32      0   0   0
    77    39      0   0   0
    77    42      0   0   0
    77    53      0   0   0
    77    71      0   0   0
    78     4      0   0   0
    78     7      0   0   0
    78    26      0   0   0
    78    35      0   0   0
    78    38      0   0   0
    78    41      0   0   0
    78    54      0   0   0
    78    68      0   0   0
    79     5      0   0   0
    79     6      0   0   0
    79    27      0   0   0
    79    33      0   0   0
    79    36      0   0   0
    79    40      0   0   0
    79    55      0   0   0
    79    69      0   0   0
    80     2      0   0   0
    80     7      0   0   0
    80    24      0   0   0
    80    29      0   0   0
    80    35      0   0   0
    80    45      0   0   0
    80    60      0   0   0
    80    66      0   0   0
    81     5      0   0   0
    81     8      0   0   0
    81    27      0   0   0
    81    30      0   0   0
    81    32      0   0   0
    81    46      0   0   0
    81    61      0   0   0
    81    65      0   0   0
    82     3      0   0   0
    82     6      0   0   0
    82    25      0   0   0
    82    28      0   0   0
    82    33      0   0   0
    82    44      0   0   0
    82    62      0   0   0
    82    67      0   0   0
    83     4      0   0   0
    83     9      0   0   0
    83    26      0   0   0
    83    31      0   0   0
    83    34      0   0   0
    83    47      0   0   0
    83    63      0   0   0
    83    64      0   0   0
    84    24      0   0   0
    84    26      0   0   0
    84    34      0   0   0
    84    35      0   0   0
    84    93      1   1   1
    84    92      0   1   0
    84    90      0   0   1
    84    91     -1   0   0
    85    25      0   0   0
    85    27      0   0   0
    85    32      0   0   0
    85    33      0   0   0
    85    93      1   0   0
    85    92      0   0  -1
    85    90      0  -1   0
    85    91     -1  -1  -1
    86    28      0   0   0
    86    31      0   0   0
    86    44      0   0   0
    86    47      0   0   0
    86    95      0   1   0
    86    94      0   0  -1
    86    97     -1   0   0
    86    96     -1  -1  -1
    87    29      0   0   0
    87    30      0   0   0
    87    45      0   0   0
    87    46      0   0   0
    87    95      1   1   1
    87    94      1   0   0
    87    97      0   0   1
    87    96      0  -1   0
    88    36      0   0   0
    88    38      0   0   0
    88    40      0   0   0
    88    41      0   0   0
    88   100      1   1   1
    88   101      1   0   0
    88    99      0   1   0
    88    98      0   0  -1
    89    37      0   0   0
    89    39      0   0   0
    89    42      0   0   0
    89    43      0   0   0
    89   100      0   0   1
    89   101      0  -1   0
    89    99     -1   0   0
    89    98     -1  -1  -1
    90    48      0   0   0
    90    56      0   0   0
    90   102      0   0   0
    90   110      0   0   0
    90    85      0   1   0
    90    84      0   0  -1
    90   105      1   1   0
    90   112     -1   0  -1
    91    49      0   0   0
    91    58      0   0   0
    91   103      0   0   0
    91   112      0   0   0
    91    85      1   1   1
    91    84      1   0   0
    91   104      1   1   0
    91   110      1   0   1
    92    50      0   0   0
    92    57      0   0   0
    92   104      0   0   0
    92   111      0   0   0
    92    85      0   0   1
    92    84      0  -1   0
    92   113      1   0   1
    92   103     -1  -1   0
    93    51      0   0   0
    93    59      0   0   0
    93   105      0   0   0
    93   113      0   0   0
    93    85     -1   0   0
    93    84     -1  -1  -1
    93   111     -1   0  -1
    93   102     -1  -1   0
    94    52      0   0   0
    94    70      0   0   0
    94   106      0   0   0
    94   124      0   0   0
    94    86      0   0   1
    94    87     -1   0   0
    94   125      0   1   1
    94   108     -1  -1   0
    95    53      0   0   0
    95    71      0   0   0
    95   107      0   0   0
    95   125      0   0   0
    95    86      0  -1   0
    95    87     -1  -1  -1
    95   124      0  -1  -1
    95   109     -1  -1   0
    96    54      0   0   0
    96    68      0   0   0
    96   108      0   0   0
    96   122      0   0   0
    96    86      1   1   1
    96    87      0   1   0
    96   106      1   1   0
    96   123      0   1   1
    97    55      0   0   0
    97    69      0   0   0
    97   109      0   0   0
    97   123      0   0   0
    97    86      1   0   0
    97    87      0   0  -1
    97   107      1   1   0
    97   122      0  -1  -1
    98    60      0   0   0
    98    66      0   0   0
    98   114      0   0   0
    98   120      0   0   0
    98    89      1   1   1
    98    88      0   0   1
    98   118      1   0   1
    98   115      0   1   1
    99    61      0   0   0
    99    65      0   0   0
    99   115      0   0   0
    99   119      0   0   0
    99    89      1   0   0
    99    88      0  -1   0
    99   121      1   0   1
    99   114      0  -1  -1
   100    62      0   0   0
   100    67      0   0   0
   100   116      0   0   0
   100   121      0   0   0
   100    89      0   0  -1
   100    88     -1  -1  -1
   100   117      0  -1  -1
   100   119     -1   0  -1
   101    63      0   0   0
   101    64      0   0   0
   101   117      0   0   0
   101   118      0   0   0
   101    89      0   1   0
   101    88     -1   0   0
   101   116      0   1   1
   101   120     -1   0  -1
   102    90      0   0   0
   102   115      0   1   0
   102    24      0   0  -1
   102    35      0   0  -1
   102    60      0   0  -1
   102    66      0   0  -1
   102   114      0   0  -1
   102    93      1   1   0
   103    91      0   0   0
   103    25      1   1   1
   103    33      1   1   1
   103    62      1   1   1
   103    67      1   1   1
   103   116      1   1   1
   103   117      1   0   0
   103    92      1   1   0
   104    92      0   0   0
   104   116      0   0   1
   104    26      0  -1   0
   104    34      0  -1   0
   104    63      0  -1   0
   104    64      0  -1   0
   104   117      0  -1   0
   104    91     -1  -1   0
   105    93      0   0   0
   105    27     -1   0   0
   105    32     -1   0   0
   105    61     -1   0   0
   105    65     -1   0   0
   105   115     -1   0   0
   105   114     -1  -1  -1
   105    90     -1  -1   0
   106    94      0   0   0
   106    28      0   0   1
   106    44      0   0   1
   106    62      0   0   1
   106    67      0   0   1
   106   121      0   0   1
   106   119     -1   0   0
   106    96     -1  -1   0
   107    95      0   0   0
   107   118      0  -1   0
   107    29     -1  -1  -1
   107    45     -1  -1  -1
   107    60     -1  -1  -1
   107    66     -1  -1  -1
   107   120     -1  -1  -1
   107    97     -1  -1   0
   108    96      0   0   0
   108   121      1   1   1
   108    30      0   1   0
   108    46      0   1   0
   108    61      0   1   0
   108    65      0   1   0
   108   119      0   1   0
   108    94      1   1   0
   109    97      0   0   0
   109    31      1   0   0
   109    47      1   0   0
   109    63      1   0   0
   109    64      1   0   0
   109   118      1   0   0
   109   120      0   0  -1
   109    95      1   1   0
   110    90      0   0   0
   110    25      0   1   0
   110    32      0   1   0
   110    53      0   1   0
   110    71      0   1   0
   110   125      0   1   0
   110   124      0   0  -1
   110    91     -1   0  -1
   111    92      0   0   0
   111    27      0   0   1
   111    33      0   0   1
   111    55      0   0   1
   111    69      0   0   1
   111   123      0   0   1
   111   122      0  -1   0
   111    93      1   0   1
   112    91      0   0   0
   112   125      1   1   1
   112    24      1   0   0
   112    34      1   0   0
   112    52      1   0   0
   112    70      1   0   0
   112   124      1   0   0
   112    90      1   0   1
   113    93      0   0   0
   113   123     -1   0   0
   113    26     -1  -1  -1
   113    35     -1  -1  -1
   113    54     -1  -1  -1
   113    68     -1  -1  -1
   113   122     -1  -1  -1
   113    92     -1   0  -1
   114    98      0   0   0
   114   105      1   1   1
   114    36      0   0   1
   114    41      0   0   1
   114    48      0   0   1
   114    56      0   0   1
   114   102      0   0   1
   114    99      0   1   1
   115    99      0   0   0
   115    37      1   0   0
   115    42      1   0   0
   115    51      1   0   0
   115    59      1   0   0
   115   105      1   0   0
   115   102      0  -1   0
   115    98      0  -1  -1
   116   100      0   0   0
   116   104      0   0  -1
   116    38     -1  -1  -1
   116    40     -1  -1  -1
   116    49     -1  -1  -1
   116    58     -1  -1  -1
   116   103     -1  -1  -1
   116   101      0  -1  -1
   117   101      0   0   0
   117    39      0   1   0
   117    43      0   1   0
   117    50      0   1   0
   117    57      0   1   0
   117   104      0   1   0
   117   103     -1   0   0
   117   100      0   1   1
   118   101      0   0   0
   118   107      0   1   0
   118    36     -1   0   0
   118    40     -1   0   0
   118    55     -1   0   0
   118    69     -1   0   0
   118   109     -1   0   0
   118    98     -1   0  -1
   119    99      0   0   0
   119   106      1   0   0
   119    38      0  -1   0
   119    41      0  -1   0
   119    54      0  -1   0
   119    68      0  -1   0
   119   108      0  -1   0
   119   100      1   0   1
   120    98      0   0   0
   120    39      1   1   1
   120    42      1   1   1
   120    53      1   1   1
   120    71      1   1   1
   120   107      1   1   1
   120   109      0   0   1
   120   101      1   0   1
   121   100      0   0   0
   121    37      0   0  -1
   121    43      0   0  -1
   121    52      0   0  -1
   121    70      0   0  -1
   121   106      0   0  -1
   121   108     -1  -1  -1
   121    99     -1   0  -1
   122    96      0   0   0
   122    31      1   1   1
   122    44      1   1   1
   122    51      1   1   1
   122    59      1   1   1
   122   113      1   1   1
   122   111      0   1   0
   122    97      0   1   1
   123    97      0   0   0
   123   113      1   0   0
   123    30      0   0  -1
   123    45      0   0  -1
   123    50      0   0  -1
   123    57      0   0  -1
   123   111      0   0  -1
   123    96      0  -1  -1
   124    94      0   0   0
   124   110      0   0   1
   124    29     -1   0   0
   124    46     -1   0   0
   124    49     -1   0   0
   124    58     -1   0   0
   124   112     -1   0   0
   124    95      0   1   1
   125    95      0   0   0
   125    28      0  -1   0
   125    47      0  -1   0
   125    48      0  -1   0
   125    56      0  -1   0
   125   110      0  -1   0
   125   112     -1  -1  -1
   125    94      0  -1  -1
end nnkpts

begin exclude_bands
   0
end exclude_bands
