 written on  1Aug2024 at 13:42:43 
           8
         165
    3    2    2    2    1    2    3    2    2    3    3    1    3    2    1
    1    2    2    1    1    1    2    3    1    1    1    1    3    1    1
    1    1    1    3    2    2    3    3    2    1    1    2    1    1    1
    1    1    2    1    1    1    1    2    1    1    1    1    1    3    1
    1    1    1    3    2    1    2    2    2    2    1    1    1    2    2
    1    1    1    1    2    1    1    1    1    1    2    1    1    1    1
    2    2    1    1    1    2    2    2    2    1    2    3    1    1    1
    1    3    1    1    1    1    1    2    1    1    1    1    2    1    1
    1    1    1    2    1    1    2    3    3    2    2    3    1    1    1
    1    1    3    1    1    1    1    3    2    1    1    1    2    2    1
    1    2    3    1    3    3    2    2    3    2    1    2    2    2    3
   -3   -1    2    1    1    0.002825   -0.000000
   -3   -1    2    2    1   -0.001860   -0.000000
   -3   -1    2    3    1   -0.005779   -0.000000
   -3   -1    2    4    1   -0.000874   -0.000000
   -3   -1    2    5    1    0.000259   -0.000000
   -3   -1    2    6    1    0.000573   -0.000000
   -3   -1    2    7    1    0.001873    0.000000
   -3   -1    2    8    1    0.000128   -0.000000
   -3   -1    2    1    2    0.003710   -0.000000
   -3   -1    2    2    2    0.014476   -0.000000
   -3   -1    2    3    2   -0.001716    0.000000
   -3   -1    2    4    2   -0.003063   -0.000000
   -3   -1    2    5    2   -0.002680   -0.000000
   -3   -1    2    6    2   -0.008274    0.000000
   -3   -1    2    7    2   -0.004241   -0.000000
   -3   -1    2    8    2    0.004508    0.000000
   -3   -1    2    1    3   -0.000471    0.000000
   -3   -1    2    2    3   -0.003346    0.000000
   -3   -1    2    3    3    0.013871    0.000000
   -3   -1    2    4    3   -0.003208    0.000000
   -3   -1    2    5    3   -0.002551   -0.000000
   -3   -1    2    6    3   -0.003467   -0.000000
   -3   -1    2    7    3   -0.007829    0.000000
   -3   -1    2    8    3    0.004771    0.000000
   -3   -1    2    1    4    0.004706    0.000000
   -3   -1    2    2    4   -0.002615   -0.000000
   -3   -1    2    3    4   -0.001402    0.000000
   -3   -1    2    4    4    0.014300    0.000000
   -3   -1    2    5    4   -0.001768    0.000000
   -3   -1    2    6    4   -0.001038   -0.000000
   -3   -1    2    7    4   -0.001159    0.000000
   -3   -1    2    8    4    0.000738    0.000000
   -3   -1    2    1    5   -0.000500   -0.000000
   -3   -1    2    2    5   -0.000890    0.000000
   -3   -1    2    3    5   -0.000543   -0.000000
   -3   -1    2    4    5    0.000330   -0.000000
   -3   -1    2    5    5   -0.000239    0.000000
   -3   -1    2    6    5    0.000114    0.000000
   -3   -1    2    7    5    0.000116   -0.000000
   -3   -1    2    8    5    0.000120    0.000000
   -3   -1    2    1    6    0.000589    0.000000
   -3   -1    2    2    6    0.002278   -0.000000
   -3   -1    2    3    6   -0.002250    0.000000
   -3   -1    2    4    6   -0.000047    0.000000
   -3   -1    2    5    6   -0.000106    0.000000
   -3   -1    2    6    6   -0.000987   -0.000000
   -3   -1    2    7    6   -0.000384    0.000000
   -3   -1    2    8    6   -0.000347   -0.000000
   -3   -1    2    1    7   -0.000954    0.000000
   -3   -1    2    2    7   -0.002462    0.000000
   -3   -1    2    3    7    0.002723   -0.000000
   -3   -1    2    4    7    0.000189    0.000000
   -3   -1    2    5    7   -0.000116    0.000000
   -3   -1    2    6    7   -0.000346    0.000000
   -3   -1    2    7    7   -0.000954    0.000000
   -3   -1    2    8    7   -0.000343    0.000000
   -3   -1    2    1    8   -0.000607    0.000000
   -3   -1    2    2    8   -0.000062    0.000000
   -3   -1    2    3    8   -0.000115   -0.000000
   -3   -1    2    4    8   -0.005291   -0.000000
   -3   -1    2    5    8   -0.000110   -0.000000
   -3   -1    2    6    8   -0.000353    0.000000
   -3   -1    2    7    8   -0.000398    0.000000
   -3   -1    2    8    8   -0.000973   -0.000000
   -3    0    1    1    1    0.001694   -0.000000
   -3    0    1    2    1   -0.003875   -0.000000
   -3    0    1    3    1    0.003823    0.000000
   -3    0    1    4    1    0.001401   -0.000000
   -3    0    1    5    1    0.000035   -0.000000
   -3    0    1    6    1    0.000019    0.000000
   -3    0    1    7    1   -0.000692    0.000000
   -3    0    1    8    1    0.000161   -0.000000
   -3    0    1    1    2   -0.002221    0.000000
   -3    0    1    2    2   -0.009424   -0.000000
   -3    0    1    3    2    0.003443    0.000000
   -3    0    1    4    2   -0.003400    0.000000
   -3    0    1    5    2   -0.000886   -0.000000
   -3    0    1    6    2    0.000587    0.000000
   -3    0    1    7    2   -0.000141    0.000000
   -3    0    1    8    2   -0.000138    0.000000
   -3    0    1    1    3    0.007080   -0.000000
   -3    0    1    2    3    0.002966   -0.000000
   -3    0    1    3    3   -0.008106   -0.000000
   -3    0    1    4    3   -0.001188   -0.000000
   -3    0    1    5    3   -0.001056   -0.000000
   -3    0    1    6    3    0.000048    0.000000
   -3    0    1    7    3    0.000349    0.000000
   -3    0    1    8    3    0.000145    0.000000
   -3    0    1    1    4   -0.002038    0.000000
   -3    0    1    2    4   -0.000702    0.000000
   -3    0    1    3    4   -0.005053   -0.000000
   -3    0    1    4    4   -0.002091    0.000000
   -3    0    1    5    4   -0.000936    0.000000
   -3    0    1    6    4   -0.000272    0.000000
   -3    0    1    7    4   -0.000192    0.000000
   -3    0    1    8    4    0.000563   -0.000000
   -3    0    1    1    5   -0.003989   -0.000000
   -3    0    1    2    5   -0.003103   -0.000000
   -3    0    1    3    5   -0.002209   -0.000000
   -3    0    1    4    5    0.000491   -0.000000
   -3    0    1    5    5    0.000738    0.000000
   -3    0    1    6    5   -0.000257   -0.000000
   -3    0    1    7    5   -0.000272    0.000000
   -3    0    1    8    5    0.000888   -0.000000
   -3    0    1    1    6   -0.004787    0.000000
   -3    0    1    2    6    0.007952    0.000000
   -3    0    1    3    6   -0.003974   -0.000000
   -3    0    1    4    6    0.000805    0.000000
   -3    0    1    5    6    0.000340    0.000000
   -3    0    1    6    6   -0.001817   -0.000000
   -3    0    1    7    6    0.001548    0.000000
   -3    0    1    8    6    0.000814    0.000000
   -3    0    1    1    7   -0.007160    0.000000
   -3    0    1    2    7   -0.002463    0.000000
   -3    0    1    3    7    0.007438    0.000000
   -3    0    1    4    7    0.001212   -0.000000
   -3    0    1    5    7    0.000262   -0.000000
   -3    0    1    6    7    0.001657    0.000000
   -3    0    1    7    7   -0.001834   -0.000000
   -3    0    1    8    7    0.000978    0.000000
   -3    0    1    1    8   -0.000062    0.000000
   -3    0    1    2    8   -0.000057    0.000000
   -3    0    1    3    8    0.000005   -0.000000
   -3    0    1    4    8   -0.000344    0.000000
   -3    0    1    5    8   -0.000837    0.000000
   -3    0    1    6    8    0.000997   -0.000000
   -3    0    1    7    8    0.000761    0.000000
   -3    0    1    8    8    0.001387    0.000000
   -3    0    2    1    1    0.002583   -0.000000
   -3    0    2    2    1   -0.001025   -0.000000
   -3    0    2    3    1    0.003441   -0.000000
   -3    0    2    4    1   -0.003495   -0.000000
   -3    0    2    5    1    0.003615    0.000000
   -3    0    2    6    1    0.001202   -0.000000
   -3    0    2    7    1    0.011578   -0.000000
   -3    0    2    8    1   -0.001976   -0.000000
   -3    0    2    1    2    0.001152   -0.000000
   -3    0    2    2    2   -0.009538   -0.000000
   -3    0    2    3    2   -0.002395    0.000000
   -3    0    2    4    2    0.004041    0.000000
   -3    0    2    5    2   -0.005438   -0.000000
   -3    0    2    6    2   -0.005927    0.000000
   -3    0    2    7    2   -0.009465   -0.000000
   -3    0    2    8    2    0.006281   -0.000000
   -3    0    2    1    3   -0.001161    0.000000
   -3    0    2    2    3   -0.002718    0.000000
   -3    0    2    3    3   -0.001682   -0.000000
   -3    0    2    4    3   -0.002284   -0.000000
   -3    0    2    5    3    0.003418   -0.000000
   -3    0    2    6    3    0.003994   -0.000000
   -3    0    2    7    3    0.001828    0.000000
   -3    0    2    8    3   -0.004297    0.000000
   -3    0    2    1    4   -0.000562    0.000000
   -3    0    2    2    4    0.004179   -0.000000
   -3    0    2    3    4   -0.003759    0.000000
   -3    0    2    4    4   -0.009222    0.000000
   -3    0    2    5    4    0.003905    0.000000
   -3    0    2    6    4    0.005822   -0.000000
   -3    0    2    7    4    0.007025    0.000000
   -3    0    2    8    4   -0.006259   -0.000000
   -3    0    2    1    5   -0.000239   -0.000000
   -3    0    2    2    5    0.001600    0.000000
   -3    0    2    3    5    0.003110    0.000000
   -3    0    2    4    5    0.002319   -0.000000
   -3    0    2    5    5    0.000766    0.000000
   -3    0    2    6    5   -0.000331   -0.000000
   -3    0    2    7    5    0.000853   -0.000000
   -3    0    2    8    5   -0.000304   -0.000000
   -3    0    2    1    6   -0.001133   -0.000000
   -3    0    2    2    6    0.001581    0.000000
   -3    0    2    3    6    0.003645   -0.000000
   -3    0    2    4    6    0.004517   -0.000000
   -3    0    2    5    6    0.000276    0.000000
   -3    0    2    6    6   -0.001862    0.000000
   -3    0    2    7    6    0.000925   -0.000000
   -3    0    2    8    6    0.001651   -0.000000
   -3    0    2    1    7    0.001332   -0.000000
   -3    0    2    2    7   -0.000955    0.000000
   -3    0    2    3    7   -0.008094    0.000000
   -3    0    2    4    7   -0.003764    0.000000
   -3    0    2    5    7   -0.000931    0.000000
   -3    0    2    6    7    0.000904   -0.000000
   -3    0    2    7    7    0.001372    0.000000
   -3    0    2    8    7    0.000951    0.000000
   -3    0    2    1    8   -0.000092   -0.000000
   -3    0    2    2    8   -0.000893    0.000000
   -3    0    2    3    8   -0.004778   -0.000000
   -3    0    2    4    8   -0.008090   -0.000000
   -3    0    2    5    8    0.000276   -0.000000
   -3    0    2    6    8    0.001625   -0.000000
   -3    0    2    7    8    0.000862    0.000000
   -3    0    2    8    8   -0.001868   -0.000000
   -3    1    0    1    1    0.001157   -0.000000
   -3    1    0    2    1   -0.000684   -0.000000
   -3    1    0    3    1    0.006931    0.000000
   -3    1    0    4    1    0.000026   -0.000000
   -3    1    0    5    1   -0.000595    0.000000
   -3    1    0    6    1    0.000567    0.000000
   -3    1    0    7    1   -0.000189   -0.000000
   -3    1    0    8    1   -0.000068   -0.000000
   -3    1    0    1    2   -0.003757    0.000000
   -3    1    0    2    2   -0.009384   -0.000000
   -3    1    0    3    2    0.003099    0.000000
   -3    1    0    4    2    0.001431    0.000000
   -3    1    0    5    2    0.001120    0.000000
   -3    1    0    6    2    0.000524    0.000000
   -3    1    0    7    2    0.000110    0.000000
   -3    1    0    8    2   -0.000030   -0.000000
   -3    1    0    1    3    0.005404   -0.000000
   -3    1    0    2    3    0.003311    0.000000
   -3    1    0    3    3   -0.007887   -0.000000
   -3    1    0    4    3    0.003614   -0.000000
   -3    1    0    5    3    0.001150    0.000000
   -3    1    0    6    3   -0.000178    0.000000
   -3    1    0    7    3    0.000651    0.000000
   -3    1    0    8    3    0.000284   -0.000000
   -3    1    0    1    4   -0.003187    0.000000
   -3    1    0    2    4    0.003688    0.000000
   -3    1    0    3    4   -0.000290   -0.000000
   -3    1    0    4    4   -0.001844    0.000000
   -3    1    0    5    4   -0.001066    0.000000
   -3    1    0    6    4    0.000103   -0.000000
   -3    1    0    7    4    0.000134    0.000000
   -3    1    0    8    4    0.000673   -0.000000
   -3    1    0    1    5   -0.004911    0.000000
   -3    1    0    2    5    0.002567   -0.000000
   -3    1    0    3    5    0.002804   -0.000000
   -3    1    0    4    5    0.000465   -0.000000
   -3    1    0    5    5    0.000739   -0.000000
   -3    1    0    6    5    0.000315   -0.000000
   -3    1    0    7    5    0.000298    0.000000
   -3    1    0    8    5    0.000835   -0.000000
   -3    1    0    1    6    0.006811   -0.000000
   -3    1    0    2    6    0.008298    0.000000
   -3    1    0    3    6   -0.000227    0.000000
   -3    1    0    4    6   -0.001239   -0.000000
   -3    1    0    5    6   -0.000198   -0.000000
   -3    1    0    6    6   -0.001816    0.000000
   -3    1    0    7    6    0.001674   -0.000000
   -3    1    0    8    6   -0.001014   -0.000000
   -3    1    0    1    7    0.003622   -0.000000
   -3    1    0    2    7   -0.003690   -0.000000
   -3    1    0    3    7    0.007653    0.000000
   -3    1    0    4    7   -0.000792   -0.000000
   -3    1    0    5    7   -0.000279    0.000000
   -3    1    0    6    7    0.001547   -0.000000
   -3    1    0    7    7   -0.001806    0.000000
   -3    1    0    8    7   -0.000769    0.000000
   -3    1    0    1    8   -0.000059   -0.000000
   -3    1    0    2    8    0.000010    0.000000
   -3    1    0    3    8    0.000081   -0.000000
   -3    1    0    4    8   -0.000296   -0.000000
   -3    1    0    5    8   -0.000867   -0.000000
   -3    1    0    6    8   -0.000835   -0.000000
   -3    1    0    7    8   -0.000974    0.000000
   -3    1    0    8    8    0.001389    0.000000
   -3    1    1    1    1    0.009983   -0.000000
   -3    1    1    2    1   -0.008785   -0.000000
   -3    1    1    3    1    0.011279    0.000000
   -3    1    1    4    1    0.006049   -0.000000
   -3    1    1    5    1    0.000368    0.000000
   -3    1    1    6    1   -0.000069   -0.000000
   -3    1    1    7    1   -0.000297   -0.000000
   -3    1    1    8    1    0.000065   -0.000000
   -3    1    1    1    2    0.006674    0.000000
   -3    1    1    2    2    0.001074   -0.000000
   -3    1    1    3    2    0.003538    0.000000
   -3    1    1    4    2    0.000033    0.000000
   -3    1    1    5    2    0.000648   -0.000000
   -3    1    1    6    2    0.000492    0.000000
   -3    1    1    7    2    0.000039    0.000000
   -3    1    1    8    2   -0.000030    0.000000
   -3    1    1    1    3   -0.004506    0.000000
   -3    1    1    2    3   -0.000409    0.000000
   -3    1    1    3    3    0.002219   -0.000000
   -3    1    1    4    3    0.001423   -0.000000
   -3    1    1    5    3   -0.000726    0.000000
   -3    1    1    6    3   -0.000111    0.000000
   -3    1    1    7    3    0.000442   -0.000000
   -3    1    1    8    3   -0.000047    0.000000
   -3    1    1    1    4   -0.008978    0.000000
   -3    1    1    2    4    0.004077    0.000000
   -3    1    1    3    4   -0.006330    0.000000
   -3    1    1    4    4    0.001362    0.000000
   -3    1    1    5    4    0.000656    0.000000
   -3    1    1    6    4    0.000064    0.000000
   -3    1    1    7    4    0.000004   -0.000000
   -3    1    1    8    4    0.000493   -0.000000
   -3    1    1    1    5    0.001785   -0.000000
   -3    1    1    2    5   -0.005660   -0.000000
   -3    1    1    3    5    0.007227    0.000000
   -3    1    1    4    5   -0.002966   -0.000000
   -3    1    1    5    5   -0.001080   -0.000000
   -3    1    1    6    5    0.001745   -0.000000
   -3    1    1    7    5   -0.001822   -0.000000
   -3    1    1    8    5   -0.001734    0.000000
   -3    1    1    1    6   -0.000033    0.000000
   -3    1    1    2    6   -0.006420    0.000000
   -3    1    1    3    6    0.006205    0.000000
   -3    1    1    4    6   -0.004001   -0.000000
   -3    1    1    5    6   -0.001684    0.000000
   -3    1    1    6    6    0.001367    0.000000
   -3    1    1    7    6   -0.001342    0.000000
   -3    1    1    8    6   -0.001274   -0.000000
   -3    1    1    1    7    0.000718    0.000000
   -3    1    1    2    7    0.006244    0.000000
   -3    1    1    3    7   -0.005810    0.000000
   -3    1    1    4    7    0.003804    0.000000
   -3    1    1    5    7    0.001655   -0.000000
   -3    1    1    6    7   -0.001256    0.000000
   -3    1    1    7    7    0.001335   -0.000000
   -3    1    1    8    7    0.001185   -0.000000
   -3    1    1    1    8   -0.007310   -0.000000
   -3    1    1    2    8    0.010679    0.000000
   -3    1    1    3    8   -0.013060   -0.000000
   -3    1    1    4    8    0.000199   -0.000000
   -3    1    1    5    8    0.001805    0.000000
   -3    1    1    6    8   -0.001391    0.000000
   -3    1    1    7    8    0.001403    0.000000
   -3    1    1    8    8    0.001393   -0.000000
   -3    1    2    1    1    0.001503   -0.000000
   -3    1    2    2    1   -0.000155    0.000000
   -3    1    2    3    1    0.004373   -0.000000
   -3    1    2    4    1   -0.002545   -0.000000
   -3    1    2    5    1    0.001313    0.000000
   -3    1    2    6    1    0.000533    0.000000
   -3    1    2    7    1    0.003202   -0.000000
   -3    1    2    8    1   -0.002852    0.000000
   -3    1    2    1    2   -0.002621   -0.000000
   -3    1    2    2    2   -0.009296   -0.000000
   -3    1    2    3    2    0.001972   -0.000000
   -3    1    2    4    2    0.004089    0.000000
   -3    1    2    5    2    0.001437   -0.000000
   -3    1    2    6    2    0.001614   -0.000000
   -3    1    2    7    2    0.001065    0.000000
   -3    1    2    8    2   -0.001097   -0.000000
   -3    1    2    1    3    0.000302    0.000000
   -3    1    2    2    3    0.002200   -0.000000
   -3    1    2    3    3   -0.001218   -0.000000
   -3    1    2    4    3    0.002595   -0.000000
   -3    1    2    5    3   -0.001995    0.000000
   -3    1    2    6    3   -0.004432    0.000000
   -3    1    2    7    3   -0.007540   -0.000000
   -3    1    2    8    3    0.003382    0.000000
   -3    1    2    1    4   -0.004304    0.000000
   -3    1    2    2    4    0.004077   -0.000000
   -3    1    2    3    4    0.000752    0.000000
   -3    1    2    4    4   -0.008908    0.000000
   -3    1    2    5    4    0.002123    0.000000
   -3    1    2    6    4    0.004453    0.000000
   -3    1    2    7    4    0.003695   -0.000000
   -3    1    2    8    4   -0.007927    0.000000
   -3    1    2    1    5    0.004817   -0.000000
   -3    1    2    2    5   -0.005535   -0.000000
   -3    1    2    3    5   -0.000454    0.000000
   -3    1    2    4    5    0.003654   -0.000000
   -3    1    2    5    5    0.000766   -0.000000
   -3    1    2    6    5    0.000213   -0.000000
   -3    1    2    7    5    0.000890   -0.000000
   -3    1    2    8    5    0.000241    0.000000
   -3    1    2    1    6    0.003087    0.000000
   -3    1    2    2    6   -0.006179   -0.000000
   -3    1    2    3    6   -0.002815    0.000000
   -3    1    2    4    6    0.005711    0.000000
   -3    1    2    5    6   -0.000326    0.000000
   -3    1    2    6    6   -0.001840   -0.000000
   -3    1    2    7    6   -0.000914    0.000000
   -3    1    2    8    6    0.001637   -0.000000
   -3    1    2    1    7   -0.010934    0.000000
   -3    1    2    2    7    0.009341    0.000000
   -3    1    2    3    7   -0.004556    0.000000
   -3    1    2    4    7   -0.007006   -0.000000
   -3    1    2    5    7   -0.000852    0.000000
   -3    1    2    6    7   -0.000963    0.000000
   -3    1    2    7    7    0.001375   -0.000000
   -3    1    2    8    7   -0.000896   -0.000000
   -3    1    2    1    8   -0.003818   -0.000000
   -3    1    2    2    8    0.006645    0.000000
   -3    1    2    3    8    0.002376   -0.000000
   -3    1    2    4    8   -0.006155   -0.000000
   -3    1    2    5    8   -0.000326   -0.000000
   -3    1    2    6    8    0.001671    0.000000
   -3    1    2    7    8   -0.000950   -0.000000
   -3    1    2    8    8   -0.001834    0.000000
   -3    2   -1    1    1    0.002642   -0.000000
   -3    2   -1    2    1    0.004713    0.000000
   -3    2   -1    3    1    0.000237   -0.000000
   -3    2   -1    4    1   -0.001853   -0.000000
   -3    2   -1    5    1   -0.001139   -0.000000
   -3    2   -1    6    1    0.000768    0.000000
   -3    2   -1    7    1    0.002090   -0.000000
   -3    2   -1    8    1    0.001652   -0.000000
   -3    2   -1    1    2   -0.001233   -0.000000
   -3    2   -1    2    2    0.014405   -0.000000
   -3    2   -1    3    2   -0.003234    0.000000
   -3    2   -1    4    2    0.003128    0.000000
   -3    2   -1    5    2    0.002665   -0.000000
   -3    2   -1    6    2   -0.008196    0.000000
   -3    2   -1    7    2   -0.003732   -0.000000
   -3    2   -1    8    2   -0.004764   -0.000000
   -3    2   -1    1    3   -0.005108    0.000000
   -3    2   -1    2    3   -0.001726    0.000000
   -3    2   -1    3    3    0.014017   -0.000000
   -3    2   -1    4    3    0.002664   -0.000000
   -3    2   -1    5    3    0.002955    0.000000
   -3    2   -1    6    3   -0.004422   -0.000000
   -3    2   -1    7    3   -0.007987    0.000000
   -3    2   -1    8    3   -0.003956   -0.000000
   -3    2   -1    1    4    0.003753    0.000000
   -3    2   -1    2    4    0.002133    0.000000
   -3    2   -1    3    4    0.003376    0.000000
   -3    2   -1    4    4    0.014408    0.000000
   -3    2   -1    5    4   -0.001811    0.000000
   -3    2   -1    6    4    0.000773   -0.000000
   -3    2   -1    7    4    0.000734    0.000000
   -3    2   -1    8    4    0.000711   -0.000000
   -3    2   -1    1    5   -0.000438    0.000000
   -3    2   -1    2    5    0.000833    0.000000
   -3    2   -1    3    5    0.000723   -0.000000
   -3    2   -1    4    5    0.000243   -0.000000
   -3    2   -1    5    5   -0.000235   -0.000000
   -3    2   -1    6    5   -0.000097   -0.000000
   -3    2   -1    7    5   -0.000077   -0.000000
   -3    2   -1    8    5    0.000082   -0.000000
   -3    2   -1    1    6    0.000959    0.000000
   -3    2   -1    2    6    0.002610    0.000000
   -3    2   -1    3    6   -0.002402   -0.000000
   -3    2   -1    4    6   -0.000102   -0.000000
   -3    2   -1    5    6    0.000157   -0.000000
   -3    2   -1    6    6   -0.000955    0.000000
   -3    2   -1    7    6   -0.000360   -0.000000
   -3    2   -1    8    6    0.000353   -0.000000
   -3    2   -1    1    7   -0.000992    0.000000
   -3    2   -1    2    7   -0.002745    0.000000
   -3    2   -1    3    7    0.001904   -0.000000
   -3    2   -1    4    7    0.000122   -0.000000
   -3    2   -1    5    7    0.000122    0.000000
   -3    2   -1    6    7   -0.000396   -0.000000
   -3    2   -1    7    7   -0.000978    0.000000
   -3    2   -1    8    7    0.000389   -0.000000
   -3    2   -1    1    8   -0.000677    0.000000
   -3    2   -1    2    8    0.000062    0.000000
   -3    2   -1    3    8    0.000058    0.000000
   -3    2   -1    4    8   -0.005291    0.000000
   -3    2   -1    5    8   -0.000128    0.000000
   -3    2   -1    6    8    0.000370   -0.000000
   -3    2   -1    7    8    0.000379    0.000000
   -3    2   -1    8    8   -0.000986   -0.000000
   -3    2    0    1    1    0.001935   -0.000000
   -3    2    0    2    1   -0.000788   -0.000000
   -3    2    0    3    1    0.005922   -0.000000
   -3    2    0    4    1   -0.002674   -0.000000
   -3    2    0    5    1    0.002889   -0.000000
   -3    2    0    6    1   -0.009560    0.000000
   -3    2    0    7    1   -0.000441   -0.000000
   -3    2    0    8    1   -0.001704   -0.000000
   -3    2    0    1    2    0.002746    0.000000
   -3    2    0    2    2   -0.002265   -0.000000
   -3    2    0    3    2   -0.001190    0.000000
   -3    2    0    4    2    0.002125    0.000000
   -3    2    0    5    2   -0.002591    0.000000
   -3    2    0    6    2   -0.000543    0.000000
   -3    2    0    7    2    0.003797   -0.000000
   -3    2    0    8    2    0.003966   -0.000000
   -3    2    0    1    3    0.003349    0.000000
   -3    2    0    2    3   -0.003924    0.000000
   -3    2    0    3    3   -0.008348   -0.000000
   -3    2    0    4    3   -0.004853   -0.000000
   -3    2    0    5    3    0.007049    0.000000
   -3    2    0    6    3   -0.012298    0.000000
   -3    2    0    7    3   -0.005595    0.000000
   -3    2    0    8    3   -0.006738    0.000000
   -3    2    0    1    4   -0.000434    0.000000
   -3    2    0    2    4    0.002603    0.000000
   -3    2    0    3    4   -0.004588    0.000000
   -3    2    0    4    4   -0.009354    0.000000
   -3    2    0    5    4    0.003830    0.000000
   -3    2    0    6    4   -0.007578    0.000000
   -3    2    0    7    4   -0.006067    0.000000
   -3    2    0    8    4   -0.006349   -0.000000
   -3    2    0    1    5    0.000863    0.000000
   -3    2    0    2    5   -0.002470   -0.000000
   -3    2    0    3    5   -0.001449   -0.000000
   -3    2    0    4    5    0.001910   -0.000000
   -3    2    0    5    5    0.000755   -0.000000
   -3    2    0    6    5   -0.000850   -0.000000
   -3    2    0    7    5    0.000346    0.000000
   -3    2    0    8    5   -0.000368    0.000000
   -3    2    0    1    6    0.000714   -0.000000
   -3    2    0    2    6   -0.008320    0.000000
   -3    2    0    3    6   -0.001015   -0.000000
   -3    2    0    4    6    0.003747   -0.000000
   -3    2    0    5    6    0.000967    0.000000
   -3    2    0    6    6    0.001430    0.000000
   -3    2    0    7    6    0.000951   -0.000000
   -3    2    0    8    6   -0.000911   -0.000000
   -3    2    0    1    7    0.000567    0.000000
   -3    2    0    2    7    0.003867   -0.000000
   -3    2    0    3    7    0.002451    0.000000
   -3    2    0    4    7   -0.004234    0.000000
   -3    2    0    5    7   -0.000241    0.000000
   -3    2    0    6    7    0.000819   -0.000000
   -3    2    0    7    7   -0.001806    0.000000
   -3    2    0    8    7   -0.001636    0.000000
   -3    2    0    1    8   -0.001334   -0.000000
   -3    2    0    2    8    0.004386    0.000000
   -3    2    0    3    8    0.000806   -0.000000
   -3    2    0    4    8   -0.007959   -0.000000
   -3    2    0    5    8    0.000229    0.000000
   -3    2    0    6    8   -0.000922   -0.000000
   -3    2    0    7    8   -0.001670    0.000000
   -3    2    0    8    8   -0.001800   -0.000000
   -3    2    1    1    1    0.001404    0.000000
   -3    2    1    2    1   -0.003465    0.000000
   -3    2    1    3    1    0.003850   -0.000000
   -3    2    1    4    1   -0.000718   -0.000000
   -3    2    1    5    1    0.001166   -0.000000
   -3    2    1    6    1   -0.001843    0.000000
   -3    2    1    7    1    0.000217   -0.000000
   -3    2    1    8    1   -0.002063   -0.000000
   -3    2    1    1    2   -0.000158   -0.000000
   -3    2    1    2    2   -0.002015   -0.000000
   -3    2    1    3    2    0.003322   -0.000000
   -3    2    1    4    2   -0.002369   -0.000000
   -3    2    1    5    2    0.002063   -0.000000
   -3    2    1    6    2   -0.008132   -0.000000
   -3    2    1    7    2   -0.004125    0.000000
   -3    2    1    8    2   -0.003967   -0.000000
   -3    2    1    1    3    0.005960    0.000000
   -3    2    1    2    3    0.000638   -0.000000
   -3    2    1    3    3   -0.008216   -0.000000
   -3    2    1    4    3   -0.004608   -0.000000
   -3    2    1    5    3   -0.001376    0.000000
   -3    2    1    6    3    0.000930    0.000000
   -3    2    1    7    3    0.002477   -0.000000
   -3    2    1    8    3    0.000840    0.000000
   -3    2    1    1    4   -0.003015    0.000000
   -3    2    1    2    4   -0.001813   -0.000000
   -3    2    1    3    4   -0.004782    0.000000
   -3    2    1    4    4   -0.009233    0.000000
   -3    2    1    5    4    0.001871    0.000000
   -3    2    1    6    4   -0.003721    0.000000
   -3    2    1    7    4   -0.004215   -0.000000
   -3    2    1    8    4   -0.007918    0.000000
   -3    2    1    1    5    0.003235    0.000000
   -3    2    1    2    5    0.001898   -0.000000
   -3    2    1    3    5    0.007092    0.000000
   -3    2    1    4    5    0.003715   -0.000000
   -3    2    1    5    5    0.000755    0.000000
   -3    2    1    6    5   -0.000954   -0.000000
   -3    2    1    7    5   -0.000229   -0.000000
   -3    2    1    8    5    0.000206    0.000000
   -3    2    1    1    6    0.009449   -0.000000
   -3    2    1    2    6   -0.001981   -0.000000
   -3    2    1    3    6    0.012165    0.000000
   -3    2    1    4    6    0.007545    0.000000
   -3    2    1    5    6    0.000842   -0.000000
   -3    2    1    6    6    0.001432   -0.000000
   -3    2    1    7    6   -0.000834    0.000000
   -3    2    1    8    6    0.000937    0.000000
   -3    2    1    1    7   -0.000893    0.000000
   -3    2    1    2    7   -0.003659    0.000000
   -3    2    1    3    7   -0.005714   -0.000000
   -3    2    1    4    7   -0.006000   -0.000000
   -3    2    1    5    7    0.000349    0.000000
   -3    2    1    6    7   -0.000953    0.000000
   -3    2    1    7    7   -0.001790   -0.000000
   -3    2    1    8    7   -0.001681   -0.000000
   -3    2    1    1    8   -0.002175   -0.000000
   -3    2    1    2    8   -0.003465    0.000000
   -3    2    1    3    8   -0.006897   -0.000000
   -3    2    1    4    8   -0.006285   -0.000000
   -3    2    1    5    8   -0.000362   -0.000000
   -3    2    1    6    8    0.000918    0.000000
   -3    2    1    7    8   -0.001641   -0.000000
   -3    2    1    8    8   -0.001788    0.000000
   -3    2    2    1    1    0.002463   -0.000000
   -3    2    2    2    1    0.002551    0.000000
   -3    2    2    3    1   -0.004869   -0.000000
   -3    2    2    4    1    0.003504   -0.000000
   -3    2    2    5    1   -0.000428   -0.000000
   -3    2    2    6    1   -0.000594   -0.000000
   -3    2    2    7    1   -0.000626   -0.000000
   -3    2    2    8    1   -0.000680   -0.000000
   -3    2    2    1    2   -0.003440   -0.000000
   -3    2    2    2    2    0.014520    0.000000
   -3    2    2    3    2    0.002300   -0.000000
   -3    2    2    4    2   -0.002611   -0.000000
   -3    2    2    5    2   -0.000915   -0.000000
   -3    2    2    6    2    0.002406    0.000000
   -3    2    2    7    2    0.002938   -0.000000
   -3    2    2    8    2   -0.000049   -0.000000
   -3    2    2    1    3    0.000601    0.000000
   -3    2    2    2    3    0.003313   -0.000000
   -3    2    2    3    3    0.014058    0.000000
   -3    2    2    4    3    0.003339   -0.000000
   -3    2    2    5    3    0.000773    0.000000
   -3    2    2    6    3    0.002633    0.000000
   -3    2    2    7    3    0.001889   -0.000000
   -3    2    2    8    3    0.000051    0.000000
   -3    2    2    1    4   -0.002296    0.000000
   -3    2    2    2    4   -0.003000   -0.000000
   -3    2    2    3    4    0.002671    0.000000
   -3    2    2    4    4    0.014431   -0.000000
   -3    2    2    5    4    0.000221    0.000000
   -3    2    2    6    4    0.000030    0.000000
   -3    2    2    7    4    0.000105   -0.000000
   -3    2    2    8    4   -0.005285    0.000000
   -3    2    2    1    5   -0.001588   -0.000000
   -3    2    2    2    5   -0.002678    0.000000
   -3    2    2    3    5    0.002881   -0.000000
   -3    2    2    4    5   -0.001878   -0.000000
   -3    2    2    5    5   -0.000232    0.000000
   -3    2    2    6    5   -0.000155   -0.000000
   -3    2    2    7    5    0.000128    0.000000
   -3    2    2    8    5   -0.000142    0.000000
   -3    2    2    1    6   -0.001858   -0.000000
   -3    2    2    2    6   -0.008131   -0.000000
   -3    2    2    3    6    0.004191    0.000000
   -3    2    2    4    6   -0.000637    0.000000
   -3    2    2    5    6    0.000081   -0.000000
   -3    2    2    6    6   -0.000966   -0.000000
   -3    2    2    7    6    0.000399    0.000000
   -3    2    2    8    6   -0.000376   -0.000000
   -3    2    2    1    7    0.002652    0.000000
   -3    2    2    2    7    0.003824    0.000000
   -3    2    2    3    7   -0.007873   -0.000000
   -3    2    2    4    7    0.000635   -0.000000
   -3    2    2    5    7   -0.000066    0.000000
   -3    2    2    6    7    0.000382    0.000000
   -3    2    2    7    7   -0.000978   -0.000000
   -3    2    2    8    7    0.000391   -0.000000
   -3    2    2    1    8    0.002228    0.000000
   -3    2    2    2    8    0.004535   -0.000000
   -3    2    2    3    8   -0.003940    0.000000
   -3    2    2    4    8    0.000754    0.000000
   -3    2    2    5    8    0.000074   -0.000000
   -3    2    2    6    8   -0.000371    0.000000
   -3    2    2    7    8    0.000401   -0.000000
   -3    2    2    8    8   -0.000978    0.000000
   -2   -2    1    1    1    0.002642    0.000000
   -2   -2    1    2    1   -0.001233    0.000000
   -2   -2    1    3    1   -0.005108   -0.000000
   -2   -2    1    4    1    0.003753   -0.000000
   -2   -2    1    5    1   -0.000438   -0.000000
   -2   -2    1    6    1    0.000959   -0.000000
   -2   -2    1    7    1   -0.000992   -0.000000
   -2   -2    1    8    1   -0.000677   -0.000000
   -2   -2    1    1    2    0.004713   -0.000000
   -2   -2    1    2    2    0.014405    0.000000
   -2   -2    1    3    2   -0.001726   -0.000000
   -2   -2    1    4    2    0.002133   -0.000000
   -2   -2    1    5    2    0.000833   -0.000000
   -2   -2    1    6    2    0.002610   -0.000000
   -2   -2    1    7    2   -0.002745   -0.000000
   -2   -2    1    8    2    0.000062   -0.000000
   -2   -2    1    1    3    0.000237    0.000000
   -2   -2    1    2    3   -0.003234   -0.000000
   -2   -2    1    3    3    0.014017    0.000000
   -2   -2    1    4    3    0.003376   -0.000000
   -2   -2    1    5    3    0.000723    0.000000
   -2   -2    1    6    3   -0.002402    0.000000
   -2   -2    1    7    3    0.001904    0.000000
   -2   -2    1    8    3    0.000058   -0.000000
   -2   -2    1    1    4   -0.001853    0.000000
   -2   -2    1    2    4    0.003128   -0.000000
   -2   -2    1    3    4    0.002664    0.000000
   -2   -2    1    4    4    0.014408   -0.000000
   -2   -2    1    5    4    0.000243    0.000000
   -2   -2    1    6    4   -0.000102    0.000000
   -2   -2    1    7    4    0.000122    0.000000
   -2   -2    1    8    4   -0.005291   -0.000000
   -2   -2    1    1    5   -0.001139    0.000000
   -2   -2    1    2    5    0.002665    0.000000
   -2   -2    1    3    5    0.002955   -0.000000
   -2   -2    1    4    5   -0.001811   -0.000000
   -2   -2    1    5    5   -0.000235    0.000000
   -2   -2    1    6    5    0.000157    0.000000
   -2   -2    1    7    5    0.000122   -0.000000
   -2   -2    1    8    5   -0.000128   -0.000000
   -2   -2    1    1    6    0.000768   -0.000000
   -2   -2    1    2    6   -0.008196   -0.000000
   -2   -2    1    3    6   -0.004422    0.000000
   -2   -2    1    4    6    0.000773    0.000000
   -2   -2    1    5    6   -0.000097    0.000000
   -2   -2    1    6    6   -0.000955   -0.000000
   -2   -2    1    7    6   -0.000396    0.000000
   -2   -2    1    8    6    0.000370    0.000000
   -2   -2    1    1    7    0.002090    0.000000
   -2   -2    1    2    7   -0.003732    0.000000
   -2   -2    1    3    7   -0.007987   -0.000000
   -2   -2    1    4    7    0.000734   -0.000000
   -2   -2    1    5    7   -0.000077    0.000000
   -2   -2    1    6    7   -0.000360    0.000000
   -2   -2    1    7    7   -0.000978   -0.000000
   -2   -2    1    8    7    0.000379   -0.000000
   -2   -2    1    1    8    0.001652    0.000000
   -2   -2    1    2    8   -0.004764    0.000000
   -2   -2    1    3    8   -0.003956    0.000000
   -2   -2    1    4    8    0.000711    0.000000
   -2   -2    1    5    8    0.000082    0.000000
   -2   -2    1    6    8    0.000353    0.000000
   -2   -2    1    7    8    0.000389    0.000000
   -2   -2    1    8    8   -0.000986    0.000000
   -2   -2    2    1    1    0.020717    0.000000
   -2   -2    2    2    1   -0.020967    0.000000
   -2   -2    2    3    1   -0.003196   -0.000000
   -2   -2    2    4    1    0.001747   -0.000000
   -2   -2    2    5    1   -0.000560   -0.000000
   -2   -2    2    6    1    0.000087    0.000000
   -2   -2    2    7    1    0.001087   -0.000000
   -2   -2    2    8    1    0.000463   -0.000000
   -2   -2    2    1    2    0.015660   -0.000000
   -2   -2    2    2    2   -0.016237   -0.000000
   -2   -2    2    3    2    0.005019    0.000000
   -2   -2    2    4    2   -0.002733    0.000000
   -2   -2    2    5    2    0.000869   -0.000000
   -2   -2    2    6    2    0.002566    0.000000
   -2   -2    2    7    2   -0.000114   -0.000000
   -2   -2    2    8    2   -0.002555    0.000000
   -2   -2    2    1    3   -0.003768    0.000000
   -2   -2    2    2    3   -0.005699    0.000000
   -2   -2    2    3    3    0.032069    0.000000
   -2   -2    2    4    3    0.000554   -0.000000
   -2   -2    2    5    3   -0.000562    0.000000
   -2   -2    2    6    3    0.000077   -0.000000
   -2   -2    2    7    3   -0.005003    0.000000
   -2   -2    2    8    3    0.000184   -0.000000
   -2   -2    2    1    4    0.002066    0.000000
   -2   -2    2    2    4    0.003092    0.000000
   -2   -2    2    3    4    0.000556   -0.000000
   -2   -2    2    4    4    0.032148    0.000000
   -2   -2    2    5    4    0.000788    0.000000
   -2   -2    2    6    4   -0.002500   -0.000000
   -2   -2    2    7    4   -0.000138    0.000000
   -2   -2    2    8    4    0.002703   -0.000000
   -2   -2    2    1    5   -0.000532    0.000000
   -2   -2    2    2    5   -0.000877    0.000000
   -2   -2    2    3    5   -0.000498   -0.000000
   -2   -2    2    4    5    0.000758   -0.000000
   -2   -2    2    5    5    0.000247   -0.000000
   -2   -2    2    6    5    0.000258    0.000000
   -2   -2    2    7    5   -0.000010   -0.000000
   -2   -2    2    8    5    0.000009    0.000000
   -2   -2    2    1    6    0.000379   -0.000000
   -2   -2    2    2    6    0.002310   -0.000000
   -2   -2    2    3    6    0.000062    0.000000
   -2   -2    2    4    6    0.002528    0.000000
   -2   -2    2    5    6   -0.000318   -0.000000
   -2   -2    2    6    6    0.000258   -0.000000
   -2   -2    2    7    6   -0.000032    0.000000
   -2   -2    2    8    6    0.000020    0.000000
   -2   -2    2    1    7    0.001106    0.000000
   -2   -2    2    2    7    0.000100   -0.000000
   -2   -2    2    3    7   -0.004979   -0.000000
   -2   -2    2    4    7   -0.000140    0.000000
   -2   -2    2    5    7   -0.000014    0.000000
   -2   -2    2    6    7    0.000025   -0.000000
   -2   -2    2    7    7    0.001321    0.000000
   -2   -2    2    8    7    0.000011    0.000000
   -2   -2    2    1    8    0.000710    0.000000
   -2   -2    2    2    8    0.002564    0.000000
   -2   -2    2    3    8    0.000217   -0.000000
   -2   -2    2    4    8    0.002703   -0.000000
   -2   -2    2    5    8    0.000011    0.000000
   -2   -2    2    6    8   -0.000016   -0.000000
   -2   -2    2    7    8    0.000011    0.000000
   -2   -2    2    8    8    0.001330   -0.000000
   -2   -2    3    1    1    0.002463    0.000000
   -2   -2    3    2    1   -0.003440    0.000000
   -2   -2    3    3    1    0.000601   -0.000000
   -2   -2    3    4    1   -0.002296   -0.000000
   -2   -2    3    5    1   -0.001588    0.000000
   -2   -2    3    6    1   -0.001858    0.000000
   -2   -2    3    7    1    0.002652   -0.000000
   -2   -2    3    8    1    0.002228   -0.000000
   -2   -2    3    1    2    0.002551   -0.000000
   -2   -2    3    2    2    0.014520   -0.000000
   -2   -2    3    3    2    0.003313    0.000000
   -2   -2    3    4    2   -0.003000    0.000000
   -2   -2    3    5    2   -0.002678   -0.000000
   -2   -2    3    6    2   -0.008131    0.000000
   -2   -2    3    7    2    0.003824   -0.000000
   -2   -2    3    8    2    0.004535    0.000000
   -2   -2    3    1    3   -0.004869    0.000000
   -2   -2    3    2    3    0.002300    0.000000
   -2   -2    3    3    3    0.014058   -0.000000
   -2   -2    3    4    3    0.002671   -0.000000
   -2   -2    3    5    3    0.002881    0.000000
   -2   -2    3    6    3    0.004191   -0.000000
   -2   -2    3    7    3   -0.007873    0.000000
   -2   -2    3    8    3   -0.003940   -0.000000
   -2   -2    3    1    4    0.003504    0.000000
   -2   -2    3    2    4   -0.002611    0.000000
   -2   -2    3    3    4    0.003339    0.000000
   -2   -2    3    4    4    0.014431    0.000000
   -2   -2    3    5    4   -0.001878    0.000000
   -2   -2    3    6    4   -0.000637   -0.000000
   -2   -2    3    7    4    0.000635    0.000000
   -2   -2    3    8    4    0.000754   -0.000000
   -2   -2    3    1    5   -0.000428    0.000000
   -2   -2    3    2    5   -0.000915    0.000000
   -2   -2    3    3    5    0.000773   -0.000000
   -2   -2    3    4    5    0.000221   -0.000000
   -2   -2    3    5    5   -0.000232   -0.000000
   -2   -2    3    6    5    0.000081    0.000000
   -2   -2    3    7    5   -0.000066   -0.000000
   -2   -2    3    8    5    0.000074    0.000000
   -2   -2    3    1    6   -0.000594    0.000000
   -2   -2    3    2    6    0.002406   -0.000000
   -2   -2    3    3    6    0.002633   -0.000000
   -2   -2    3    4    6    0.000030   -0.000000
   -2   -2    3    5    6   -0.000155    0.000000
   -2   -2    3    6    6   -0.000966    0.000000
   -2   -2    3    7    6    0.000382   -0.000000
   -2   -2    3    8    6   -0.000371   -0.000000
   -2   -2    3    1    7   -0.000626    0.000000
   -2   -2    3    2    7    0.002938    0.000000
   -2   -2    3    3    7    0.001889    0.000000
   -2   -2    3    4    7    0.000105    0.000000
   -2   -2    3    5    7    0.000128   -0.000000
   -2   -2    3    6    7    0.000399   -0.000000
   -2   -2    3    7    7   -0.000978    0.000000
   -2   -2    3    8    7    0.000401    0.000000
   -2   -2    3    1    8   -0.000680    0.000000
   -2   -2    3    2    8   -0.000049    0.000000
   -2   -2    3    3    8    0.000051   -0.000000
   -2   -2    3    4    8   -0.005285   -0.000000
   -2   -2    3    5    8   -0.000142   -0.000000
   -2   -2    3    6    8   -0.000376    0.000000
   -2   -2    3    7    8    0.000391    0.000000
   -2   -2    3    8    8   -0.000978   -0.000000
   -2   -1    0    1    1    0.001157    0.000000
   -2   -1    0    2    1   -0.003757   -0.000000
   -2   -1    0    3    1    0.005404    0.000000
   -2   -1    0    4    1   -0.003187   -0.000000
   -2   -1    0    5    1   -0.004911   -0.000000
   -2   -1    0    6    1    0.006811    0.000000
   -2   -1    0    7    1    0.003622    0.000000
   -2   -1    0    8    1   -0.000059    0.000000
   -2   -1    0    1    2   -0.000684    0.000000
   -2   -1    0    2    2   -0.009384    0.000000
   -2   -1    0    3    2    0.003311   -0.000000
   -2   -1    0    4    2    0.003688   -0.000000
   -2   -1    0    5    2    0.002567    0.000000
   -2   -1    0    6    2    0.008298   -0.000000
   -2   -1    0    7    2   -0.003690    0.000000
   -2   -1    0    8    2    0.000010   -0.000000
   -2   -1    0    1    3    0.006931   -0.000000
   -2   -1    0    2    3    0.003099   -0.000000
   -2   -1    0    3    3   -0.007887    0.000000
   -2   -1    0    4    3   -0.000290    0.000000
   -2   -1    0    5    3    0.002804    0.000000
   -2   -1    0    6    3   -0.000227   -0.000000
   -2   -1    0    7    3    0.007653   -0.000000
   -2   -1    0    8    3    0.000081    0.000000
   -2   -1    0    1    4    0.000026    0.000000
   -2   -1    0    2    4    0.001431   -0.000000
   -2   -1    0    3    4    0.003614    0.000000
   -2   -1    0    4    4   -0.001844   -0.000000
   -2   -1    0    5    4    0.000465    0.000000
   -2   -1    0    6    4   -0.001239    0.000000
   -2   -1    0    7    4   -0.000792    0.000000
   -2   -1    0    8    4   -0.000296    0.000000
   -2   -1    0    1    5   -0.000595   -0.000000
   -2   -1    0    2    5    0.001120   -0.000000
   -2   -1    0    3    5    0.001150   -0.000000
   -2   -1    0    4    5   -0.001066   -0.000000
   -2   -1    0    5    5    0.000739    0.000000
   -2   -1    0    6    5   -0.000198    0.000000
   -2   -1    0    7    5   -0.000279   -0.000000
   -2   -1    0    8    5   -0.000867    0.000000
   -2   -1    0    1    6    0.000567   -0.000000
   -2   -1    0    2    6    0.000524   -0.000000
   -2   -1    0    3    6   -0.000178   -0.000000
   -2   -1    0    4    6    0.000103    0.000000
   -2   -1    0    5    6    0.000315    0.000000
   -2   -1    0    6    6   -0.001816   -0.000000
   -2   -1    0    7    6    0.001547    0.000000
   -2   -1    0    8    6   -0.000835    0.000000
   -2   -1    0    1    7   -0.000189    0.000000
   -2   -1    0    2    7    0.000110   -0.000000
   -2   -1    0    3    7    0.000651   -0.000000
   -2   -1    0    4    7    0.000134   -0.000000
   -2   -1    0    5    7    0.000298   -0.000000
   -2   -1    0    6    7    0.001674    0.000000
   -2   -1    0    7    7   -0.001806   -0.000000
   -2   -1    0    8    7   -0.000974   -0.000000
   -2   -1    0    1    8   -0.000068    0.000000
   -2   -1    0    2    8   -0.000030    0.000000
   -2   -1    0    3    8    0.000284    0.000000
   -2   -1    0    4    8    0.000673    0.000000
   -2   -1    0    5    8    0.000835    0.000000
   -2   -1    0    6    8   -0.001014    0.000000
   -2   -1    0    7    8   -0.000769   -0.000000
   -2   -1    0    8    8    0.001389   -0.000000
   -2   -1    1    1    1    0.011304    0.000000
   -2   -1    1    2    1   -0.002641   -0.000000
   -2   -1    1    3    1   -0.045623   -0.000000
   -2   -1    1    4    1   -0.002773   -0.000000
   -2   -1    1    5    1    0.000180   -0.000000
   -2   -1    1    6    1    0.000400    0.000000
   -2   -1    1    7    1    0.001561   -0.000000
   -2   -1    1    8    1    0.000048    0.000000
   -2   -1    1    1    2    0.026817    0.000000
   -2   -1    1    2    2    0.020120   -0.000000
   -2   -1    1    3    2   -0.033062    0.000000
   -2   -1    1    4    2   -0.003589    0.000000
   -2   -1    1    5    2   -0.001624   -0.000000
   -2   -1    1    6    2    0.001004   -0.000000
   -2   -1    1    7    2   -0.001051   -0.000000
   -2   -1    1    8    2   -0.000990    0.000000
   -2   -1    1    1    3   -0.000903    0.000000
   -2   -1    1    2    3   -0.046877    0.000000
   -2   -1    1    3    3    0.080416    0.000000
   -2   -1    1    4    3   -0.001835   -0.000000
   -2   -1    1    5    3   -0.002451   -0.000000
   -2   -1    1    6    3    0.004664    0.000000
   -2   -1    1    7    3   -0.007810    0.000000
   -2   -1    1    8    3   -0.003539   -0.000000
   -2   -1    1    1    4   -0.002931    0.000000
   -2   -1    1    2    4    0.001756    0.000000
   -2   -1    1    3    4    0.004423   -0.000000
   -2   -1    1    4    4   -0.007160    0.000000
   -2   -1    1    5    4   -0.002812    0.000000
   -2   -1    1    6    4    0.004214    0.000000
   -2   -1    1    7    4   -0.004532    0.000000
   -2   -1    1    8    4   -0.008280   -0.000000
   -2   -1    1    1    5   -0.001128   -0.000000
   -2   -1    1    2    5    0.001838   -0.000000
   -2   -1    1    3    5    0.002977   -0.000000
   -2   -1    1    4    5   -0.002703   -0.000000
   -2   -1    1    5    5   -0.000276    0.000000
   -2   -1    1    6    5    0.000426   -0.000000
   -2   -1    1    7    5   -0.000126   -0.000000
   -2   -1    1    8    5    0.000002    0.000000
   -2   -1    1    1    6   -0.002233    0.000000
   -2   -1    1    2    6    0.001671   -0.000000
   -2   -1    1    3    6    0.003692    0.000000
   -2   -1    1    4    6   -0.004077    0.000000
   -2   -1    1    5    6   -0.000393   -0.000000
   -2   -1    1    6    6    0.002620   -0.000000
   -2   -1    1    7    6    0.002576   -0.000000
   -2   -1    1    8    6    0.000010    0.000000
   -2   -1    1    1    7    0.002714    0.000000
   -2   -1    1    2    7   -0.000845    0.000000
   -2   -1    1    3    7   -0.007863   -0.000000
   -2   -1    1    4    7    0.004031    0.000000
   -2   -1    1    5    7    0.000138    0.000000
   -2   -1    1    6    7    0.002553    0.000000
   -2   -1    1    7    7    0.000912    0.000000
   -2   -1    1    8    7    0.000034    0.000000
   -2   -1    1    1    8   -0.002303    0.000000
   -2   -1    1    2    8    0.000828    0.000000
   -2   -1    1    3    8    0.004263   -0.000000
   -2   -1    1    4    8   -0.008083   -0.000000
   -2   -1    1    5    8   -0.000018   -0.000000
   -2   -1    1    6    8   -0.000046    0.000000
   -2   -1    1    7    8   -0.000017   -0.000000
   -2   -1    1    8    8   -0.001270   -0.000000
   -2   -1    2    1    1    0.004120    0.000000
   -2   -1    2    2    1   -0.021686    0.000000
   -2   -1    2    3    1    0.004766   -0.000000
   -2   -1    2    4    1   -0.013737   -0.000000
   -2   -1    2    5    1   -0.004036    0.000000
   -2   -1    2    6    1    0.005835    0.000000
   -2   -1    2    7    1    0.000178   -0.000000
   -2   -1    2    8    1    0.006430   -0.000000
   -2   -1    2    1    2    0.010013   -0.000000
   -2   -1    2    2    2    0.021302   -0.000000
   -2   -1    2    3    2    0.003868    0.000000
   -2   -1    2    4    2   -0.043055    0.000000
   -2   -1    2    5    2    0.002845   -0.000000
   -2   -1    2    6    2    0.008134    0.000000
   -2   -1    2    7    2   -0.000045   -0.000000
   -2   -1    2    8    2   -0.003340    0.000000
   -2   -1    2    1    3    0.003594    0.000000
   -2   -1    2    2    3   -0.006032    0.000000
   -2   -1    2    3    3   -0.005937    0.000000
   -2   -1    2    4    3   -0.005147   -0.000000
   -2   -1    2    5    3   -0.000981   -0.000000
   -2   -1    2    6    3    0.001807   -0.000000
   -2   -1    2    7    3   -0.000413    0.000000
   -2   -1    2    8    3    0.001985    0.000000
   -2   -1    2    1    4    0.032068    0.000000
   -2   -1    2    2    4   -0.041100   -0.000000
   -2   -1    2    3    4    0.006777   -0.000000
   -2   -1    2    4    4    0.085243    0.000000
   -2   -1    2    5    4    0.002610    0.000000
   -2   -1    2    6    4   -0.003691   -0.000000
   -2   -1    2    7    4   -0.000018    0.000000
   -2   -1    2    8    4    0.008035   -0.000000
   -2   -1    2    1    5    0.003795   -0.000000
   -2   -1    2    2    5   -0.003728    0.000000
   -2   -1    2    3    5    0.001505   -0.000000
   -2   -1    2    4    5   -0.000814   -0.000000
   -2   -1    2    5    5   -0.000250    0.000000
   -2   -1    2    6    5    0.000337   -0.000000
   -2   -1    2    7    5    0.000024    0.000000
   -2   -1    2    8    5   -0.000117   -0.000000
   -2   -1    2    1    6    0.003864   -0.000000
   -2   -1    2    2    6   -0.004475   -0.000000
   -2   -1    2    3    6    0.001413   -0.000000
   -2   -1    2    4    6   -0.000810   -0.000000
   -2   -1    2    5    6   -0.000436    0.000000
   -2   -1    2    6    6    0.002539    0.000000
   -2   -1    2    7    6   -0.000061   -0.000000
   -2   -1    2    8    6    0.002615    0.000000
   -2   -1    2    1    7   -0.000627    0.000000
   -2   -1    2    2    7    0.000413   -0.000000
   -2   -1    2    3    7    0.000518    0.000000
   -2   -1    2    4    7    0.000098    0.000000
   -2   -1    2    5    7   -0.000003   -0.000000
   -2   -1    2    6    7    0.000032   -0.000000
   -2   -1    2    7    7   -0.001258    0.000000
   -2   -1    2    8    7    0.000047    0.000000
   -2   -1    2    1    8    0.000353    0.000000
   -2   -1    2    2    8   -0.000233    0.000000
   -2   -1    2    3    8    0.000102   -0.000000
   -2   -1    2    4    8    0.000463   -0.000000
   -2   -1    2    5    8    0.000037    0.000000
   -2   -1    2    6    8    0.002734    0.000000
   -2   -1    2    7    8   -0.000046    0.000000
   -2   -1    2    8    8    0.000909   -0.000000
   -2   -1    3    1    1    0.001503    0.000000
   -2   -1    3    2    1   -0.002621    0.000000
   -2   -1    3    3    1    0.000302   -0.000000
   -2   -1    3    4    1   -0.004304   -0.000000
   -2   -1    3    5    1    0.004817    0.000000
   -2   -1    3    6    1    0.003087   -0.000000
   -2   -1    3    7    1   -0.010934   -0.000000
   -2   -1    3    8    1   -0.003818    0.000000
   -2   -1    3    1    2   -0.000155   -0.000000
   -2   -1    3    2    2   -0.009296    0.000000
   -2   -1    3    3    2    0.002200    0.000000
   -2   -1    3    4    2    0.004077    0.000000
   -2   -1    3    5    2   -0.005535    0.000000
   -2   -1    3    6    2   -0.006179    0.000000
   -2   -1    3    7    2    0.009341   -0.000000
   -2   -1    3    8    2    0.006645   -0.000000
   -2   -1    3    1    3    0.004373    0.000000
   -2   -1    3    2    3    0.001972    0.000000
   -2   -1    3    3    3   -0.001218    0.000000
   -2   -1    3    4    3    0.000752   -0.000000
   -2   -1    3    5    3   -0.000454   -0.000000
   -2   -1    3    6    3   -0.002815   -0.000000
   -2   -1    3    7    3   -0.004556   -0.000000
   -2   -1    3    8    3    0.002376    0.000000
   -2   -1    3    1    4   -0.002545    0.000000
   -2   -1    3    2    4    0.004089   -0.000000
   -2   -1    3    3    4    0.002595    0.000000
   -2   -1    3    4    4   -0.008908   -0.000000
   -2   -1    3    5    4    0.003654    0.000000
   -2   -1    3    6    4    0.005711   -0.000000
   -2   -1    3    7    4   -0.007006    0.000000
   -2   -1    3    8    4   -0.006155    0.000000
   -2   -1    3    1    5    0.001313   -0.000000
   -2   -1    3    2    5    0.001437    0.000000
   -2   -1    3    3    5   -0.001995   -0.000000
   -2   -1    3    4    5    0.002123   -0.000000
   -2   -1    3    5    5    0.000766    0.000000
   -2   -1    3    6    5   -0.000326   -0.000000
   -2   -1    3    7    5   -0.000852   -0.000000
   -2   -1    3    8    5   -0.000326    0.000000
   -2   -1    3    1    6    0.000533   -0.000000
   -2   -1    3    2    6    0.001614    0.000000
   -2   -1    3    3    6   -0.004432   -0.000000
   -2   -1    3    4    6    0.004453   -0.000000
   -2   -1    3    5    6    0.000213    0.000000
   -2   -1    3    6    6   -0.001840    0.000000
   -2   -1    3    7    6   -0.000963   -0.000000
   -2   -1    3    8    6    0.001671   -0.000000
   -2   -1    3    1    7    0.003202    0.000000
   -2   -1    3    2    7    0.001065   -0.000000
   -2   -1    3    3    7   -0.007540    0.000000
   -2   -1    3    4    7    0.003695    0.000000
   -2   -1    3    5    7    0.000890    0.000000
   -2   -1    3    6    7   -0.000914   -0.000000
   -2   -1    3    7    7    0.001375    0.000000
   -2   -1    3    8    7   -0.000950    0.000000
   -2   -1    3    1    8   -0.002852   -0.000000
   -2   -1    3    2    8   -0.001097    0.000000
   -2   -1    3    3    8    0.003382   -0.000000
   -2   -1    3    4    8   -0.007927   -0.000000
   -2   -1    3    5    8    0.000241   -0.000000
   -2   -1    3    6    8    0.001637    0.000000
   -2   -1    3    7    8   -0.000896    0.000000
   -2   -1    3    8    8   -0.001834   -0.000000
   -2    0   -1    1    1    0.001694    0.000000
   -2    0   -1    2    1   -0.002221   -0.000000
   -2    0   -1    3    1    0.007080    0.000000
   -2    0   -1    4    1   -0.002038   -0.000000
   -2    0   -1    5    1   -0.003989    0.000000
   -2    0   -1    6    1   -0.004787   -0.000000
   -2    0   -1    7    1   -0.007160   -0.000000
   -2    0   -1    8    1   -0.000062   -0.000000
   -2    0   -1    1    2   -0.003875    0.000000
   -2    0   -1    2    2   -0.009424    0.000000
   -2    0   -1    3    2    0.002966    0.000000
   -2    0   -1    4    2   -0.000702   -0.000000
   -2    0   -1    5    2   -0.003103    0.000000
   -2    0   -1    6    2    0.007952   -0.000000
   -2    0   -1    7    2   -0.002463   -0.000000
   -2    0   -1    8    2   -0.000057   -0.000000
   -2    0   -1    1    3    0.003823   -0.000000
   -2    0   -1    2    3    0.003443   -0.000000
   -2    0   -1    3    3   -0.008106    0.000000
   -2    0   -1    4    3   -0.005053    0.000000
   -2    0   -1    5    3   -0.002209    0.000000
   -2    0   -1    6    3   -0.003974    0.000000
   -2    0   -1    7    3    0.007438   -0.000000
   -2    0   -1    8    3    0.000005    0.000000
   -2    0   -1    1    4    0.001401    0.000000
   -2    0   -1    2    4   -0.003400   -0.000000
   -2    0   -1    3    4   -0.001188    0.000000
   -2    0   -1    4    4   -0.002091   -0.000000
   -2    0   -1    5    4    0.000491    0.000000
   -2    0   -1    6    4    0.000805   -0.000000
   -2    0   -1    7    4    0.001212    0.000000
   -2    0   -1    8    4   -0.000344   -0.000000
   -2    0   -1    1    5    0.000035    0.000000
   -2    0   -1    2    5   -0.000886    0.000000
   -2    0   -1    3    5   -0.001056    0.000000
   -2    0   -1    4    5   -0.000936   -0.000000
   -2    0   -1    5    5    0.000738   -0.000000
   -2    0   -1    6    5    0.000340   -0.000000
   -2    0   -1    7    5    0.000262    0.000000
   -2    0   -1    8    5   -0.000837   -0.000000
   -2    0   -1    1    6    0.000019   -0.000000
   -2    0   -1    2    6    0.000587   -0.000000
   -2    0   -1    3    6    0.000048   -0.000000
   -2    0   -1    4    6   -0.000272   -0.000000
   -2    0   -1    5    6   -0.000257    0.000000
   -2    0   -1    6    6   -0.001817    0.000000
   -2    0   -1    7    6    0.001657   -0.000000
   -2    0   -1    8    6    0.000997    0.000000
   -2    0   -1    1    7   -0.000692   -0.000000
   -2    0   -1    2    7   -0.000141   -0.000000
   -2    0   -1    3    7    0.000349   -0.000000
   -2    0   -1    4    7   -0.000192   -0.000000
   -2    0   -1    5    7   -0.000272   -0.000000
   -2    0   -1    6    7    0.001548   -0.000000
   -2    0   -1    7    7   -0.001834    0.000000
   -2    0   -1    8    7    0.000761   -0.000000
   -2    0   -1    1    8    0.000161    0.000000
   -2    0   -1    2    8   -0.000138   -0.000000
   -2    0   -1    3    8    0.000145   -0.000000
   -2    0   -1    4    8    0.000563    0.000000
   -2    0   -1    5    8    0.000888    0.000000
   -2    0   -1    6    8    0.000814   -0.000000
   -2    0   -1    7    8    0.000978   -0.000000
   -2    0   -1    8    8    0.001387   -0.000000
   -2    0    0    1    1   -0.065446    0.000000
   -2    0    0    2    1    0.118470   -0.000000
   -2    0    0    3    1   -0.130409   -0.000000
   -2    0    0    4    1    0.009930   -0.000000
   -2    0    0    5    1    0.005802    0.000000
   -2    0    0    6    1   -0.004042    0.000000
   -2    0    0    7    1    0.004675   -0.000000
   -2    0    0    8    1    0.012992    0.000000
   -2    0    0    1    2   -0.013001    0.000000
   -2    0    0    2    2    0.132064   -0.000000
   -2    0    0    3    2   -0.147246    0.000000
   -2    0    0    4    2    0.005463    0.000000
   -2    0    0    5    2    0.004399    0.000000
   -2    0    0    6    2   -0.005918   -0.000000
   -2    0    0    7    2    0.006252   -0.000000
   -2    0    0    8    2    0.007146    0.000000
   -2    0    0    1    3    0.003119    0.000000
   -2    0    0    2    3   -0.119716    0.000000
   -2    0    0    3    3    0.115444    0.000000
   -2    0    0    4    3   -0.003795   -0.000000
   -2    0    0    5    3   -0.002713   -0.000000
   -2    0    0    6    3    0.005061    0.000000
   -2    0    0    7    3   -0.005556    0.000000
   -2    0    0    8    3   -0.004837   -0.000000
   -2    0    0    1    4    0.006832    0.000000
   -2    0    0    2    4   -0.014450   -0.000000
   -2    0    0    3    4    0.015998    0.000000
   -2    0    0    4    4   -0.015663    0.000000
   -2    0    0    5    4    0.001318    0.000000
   -2    0    0    6    4   -0.003270   -0.000000
   -2    0    0    7    4    0.002984    0.000000
   -2    0    0    8    4   -0.003145   -0.000000
   -2    0    0    1    5    0.002475   -0.000000
   -2    0    0    2    5   -0.005462   -0.000000
   -2    0    0    3    5    0.007174    0.000000
   -2    0    0    4    5    0.001360   -0.000000
   -2    0    0    5    5    0.000371    0.000000
   -2    0    0    6    5   -0.002687   -0.000000
   -2    0    0    7    5    0.002776   -0.000000
   -2    0    0    8    5    0.000080    0.000000
   -2    0    0    1    6    0.000954   -0.000000
   -2    0    0    2    6   -0.006485    0.000000
   -2    0    0    3    6    0.006402   -0.000000
   -2    0    0    4    6    0.003200   -0.000000
   -2    0    0    5    6    0.002753   -0.000000
   -2    0    0    6    6   -0.003908   -0.000000
   -2    0    0    7    6    0.004641    0.000000
   -2    0    0    8    6    0.000026    0.000000
   -2    0    0    1    7   -0.000225    0.000000
   -2    0    0    2    7    0.006209    0.000000
   -2    0    0    3    7   -0.006081    0.000000
   -2    0    0    4    7   -0.003412    0.000000
   -2    0    0    5    7   -0.002704    0.000000
   -2    0    0    6    7    0.004547    0.000000
   -2    0    0    7    7   -0.003893   -0.000000
   -2    0    0    8    7   -0.000016    0.000000
   -2    0    0    1    8    0.007090    0.000000
   -2    0    0    2    8   -0.010334    0.000000
   -2    0    0    3    8    0.012531   -0.000000
   -2    0    0    4    8   -0.002769   -0.000000
   -2    0    0    5    8    0.000046   -0.000000
   -2    0    0    6    8   -0.000030    0.000000
   -2    0    0    7    8    0.000031   -0.000000
   -2    0    0    8    8   -0.000568   -0.000000
   -2    0    1    1    1    0.016544    0.000000
   -2    0    1    2    1   -0.032110   -0.000000
   -2    0    1    3    1    0.047715    0.000000
   -2    0    1    4    1    0.020521   -0.000000
   -2    0    1    5    1    0.002789    0.000000
   -2    0    1    6    1   -0.001069   -0.000000
   -2    0    1    7    1    0.010113   -0.000000
   -2    0    1    8    1    0.000335   -0.000000
   -2    0    1    1    2    0.015405    0.000000
   -2    0    1    2    2   -0.003878   -0.000000
   -2    0    1    3    2    0.036283    0.000000
   -2    0    1    4    2    0.026599    0.000000
   -2    0    1    5    2    0.004596   -0.000000
   -2    0    1    6    2   -0.006390   -0.000000
   -2    0    1    7    2    0.008506   -0.000000
   -2    0    1    8    2    0.006106    0.000000
   -2    0    1    1    3   -0.009179   -0.000000
   -2    0    1    2    3    0.026336    0.000000
   -2    0    1    3    3   -0.030776   -0.000000
   -2    0    1    4    3    0.001234   -0.000000
   -2    0    1    5    3    0.003400   -0.000000
   -2    0    1    6    3   -0.004237    0.000000
   -2    0    1    7    3    0.001658   -0.000000
   -2    0    1    8    3    0.003893   -0.000000
   -2    0    1    1    4   -0.030554    0.000000
   -2    0    1    2    4    0.042226    0.000000
   -2    0    1    3    4   -0.027163   -0.000000
   -2    0    1    4    4   -0.036354    0.000000
   -2    0    1    5    4   -0.006162    0.000000
   -2    0    1    6    4    0.006313    0.000000
   -2    0    1    7    4   -0.011006    0.000000
   -2    0    1    8    4   -0.005847   -0.000000
   -2    0    1    1    5   -0.007781   -0.000000
   -2    0    1    2    5    0.009738    0.000000
   -2    0    1    3    5   -0.005490   -0.000000
   -2    0    1    4    5   -0.000563   -0.000000
   -2    0    1    5    5   -0.002219   -0.000000
   -2    0    1    6    5    0.002877    0.000000
   -2    0    1    7    5   -0.003303   -0.000000
   -2    0    1    8    5   -0.003174   -0.000000
   -2    0    1    1    6   -0.016800   -0.000000
   -2    0    1    2    6    0.031764    0.000000
   -2    0    1    3    6   -0.008740   -0.000000
   -2    0    1    4    6    0.001706   -0.000000
   -2    0    1    5    6   -0.002955   -0.000000
   -2    0    1    6    6    0.007404   -0.000000
   -2    0    1    7    6   -0.003385   -0.000000
   -2    0    1    8    6   -0.003672   -0.000000
   -2    0    1    1    7   -0.011112    0.000000
   -2    0    1    2    7    0.033195    0.000000
   -2    0    1    3    7   -0.028502    0.000000
   -2    0    1    4    7    0.003906    0.000000
   -2    0    1    5    7    0.002934    0.000000
   -2    0    1    6    7   -0.003282    0.000000
   -2    0    1    7    7    0.001700    0.000000
   -2    0    1    8    7    0.011950   -0.000000
   -2    0    1    1    8   -0.003208    0.000000
   -2    0    1    2    8   -0.000125    0.000000
   -2    0    1    3    8   -0.000401   -0.000000
   -2    0    1    4    8   -0.021236   -0.000000
   -2    0    1    5    8    0.003237   -0.000000
   -2    0    1    6    8   -0.003311    0.000000
   -2    0    1    7    8    0.012542   -0.000000
   -2    0    1    8    8    0.001789   -0.000000
   -2    0    2    1    1   -0.082233   -0.000000
   -2    0    2    2    1    0.057107    0.000000
   -2    0    2    3    1   -0.017266   -0.000000
   -2    0    2    4    1   -0.044021   -0.000000
   -2    0    2    5    1   -0.005028    0.000000
   -2    0    2    6    1   -0.005761   -0.000000
   -2    0    2    7    1    0.000148   -0.000000
   -2    0    2    8    1   -0.004971   -0.000000
   -2    0    2    1    2   -0.072878   -0.000000
   -2    0    2    2    2    0.136216    0.000000
   -2    0    2    3    2   -0.019073   -0.000000
   -2    0    2    4    2   -0.129516    0.000000
   -2    0    2    5    2   -0.002803   -0.000000
   -2    0    2    6    2    0.008268   -0.000000
   -2    0    2    7    2    0.000040    0.000000
   -2    0    2    8    2   -0.002650   -0.000000
   -2    0    2    1    3   -0.018623    0.000000
   -2    0    2    2    3    0.017514   -0.000000
   -2    0    2    3    3   -0.019158    0.000000
   -2    0    2    4    3   -0.014123   -0.000000
   -2    0    2    5    3   -0.000924    0.000000
   -2    0    2    6    3   -0.001989    0.000000
   -2    0    2    7    3   -0.000338   -0.000000
   -2    0    2    8    3   -0.001790    0.000000
   -2    0    2    1    4    0.086451    0.000000
   -2    0    2    2    4   -0.157878   -0.000000
   -2    0    2    3    4    0.022407    0.000000
   -2    0    2    4    4    0.131904    0.000000
   -2    0    2    5    4   -0.002870    0.000000
   -2    0    2    6    4   -0.001768    0.000000
   -2    0    2    7    4    0.000072   -0.000000
   -2    0    2    8    4    0.008055    0.000000
   -2    0    2    1    5   -0.008224   -0.000000
   -2    0    2    2    5    0.008519    0.000000
   -2    0    2    3    5    0.000497    0.000000
   -2    0    2    4    5   -0.004347   -0.000000
   -2    0    2    5    5    0.000443   -0.000000
   -2    0    2    6    5   -0.002879   -0.000000
   -2    0    2    7    5   -0.000086   -0.000000
   -2    0    2    8    5    0.002823    0.000000
   -2    0    2    1    6   -0.017966    0.000000
   -2    0    2    2    6    0.031908    0.000000
   -2    0    2    3    6   -0.004257    0.000000
   -2    0    2    4    6    0.000593    0.000000
   -2    0    2    5    6    0.002818    0.000000
   -2    0    2    6    6   -0.004138   -0.000000
   -2    0    2    7    6   -0.000036    0.000000
   -2    0    2    8    6    0.004597    0.000000
   -2    0    2    1    7    0.005869    0.000000
   -2    0    2    2    7    0.000163   -0.000000
   -2    0    2    3    7   -0.021193    0.000000
   -2    0    2    4    7   -0.000280    0.000000
   -2    0    2    5    7   -0.000100   -0.000000
   -2    0    2    6    7    0.000043    0.000000
   -2    0    2    7    7   -0.000499   -0.000000
   -2    0    2    8    7   -0.000030    0.000000
   -2    0    2    1    8   -0.022366   -0.000000
   -2    0    2    2    8    0.036643    0.000000
   -2    0    2    3    8   -0.008843   -0.000000
   -2    0    2    4    8   -0.018880   -0.000000
   -2    0    2    5    8   -0.002884   -0.000000
   -2    0    2    6    8    0.004706    0.000000
   -2    0    2    7    8    0.000046    0.000000
   -2    0    2    8    8   -0.004134   -0.000000
   -2    0    3    1    1    0.002583    0.000000
   -2    0    3    2    1    0.001152    0.000000
   -2    0    3    3    1   -0.001161   -0.000000
   -2    0    3    4    1   -0.000562   -0.000000
   -2    0    3    5    1   -0.000239    0.000000
   -2    0    3    6    1   -0.001133    0.000000
   -2    0    3    7    1    0.001332    0.000000
   -2    0    3    8    1   -0.000092    0.000000
   -2    0    3    1    2   -0.001025    0.000000
   -2    0    3    2    2   -0.009538    0.000000
   -2    0    3    3    2   -0.002718   -0.000000
   -2    0    3    4    2    0.004179    0.000000
   -2    0    3    5    2    0.001600   -0.000000
   -2    0    3    6    2    0.001581   -0.000000
   -2    0    3    7    2   -0.000955   -0.000000
   -2    0    3    8    2   -0.000893   -0.000000
   -2    0    3    1    3    0.003441    0.000000
   -2    0    3    2    3   -0.002395   -0.000000
   -2    0    3    3    3   -0.001682    0.000000
   -2    0    3    4    3   -0.003759   -0.000000
   -2    0    3    5    3    0.003110   -0.000000
   -2    0    3    6    3    0.003645    0.000000
   -2    0    3    7    3   -0.008094   -0.000000
   -2    0    3    8    3   -0.004778    0.000000
   -2    0    3    1    4   -0.003495    0.000000
   -2    0    3    2    4    0.004041   -0.000000
   -2    0    3    3    4   -0.002284    0.000000
   -2    0    3    4    4   -0.009222   -0.000000
   -2    0    3    5    4    0.002319    0.000000
   -2    0    3    6    4    0.004517    0.000000
   -2    0    3    7    4   -0.003764   -0.000000
   -2    0    3    8    4   -0.008090    0.000000
   -2    0    3    1    5    0.003615   -0.000000
   -2    0    3    2    5   -0.005438    0.000000
   -2    0    3    3    5    0.003418    0.000000
   -2    0    3    4    5    0.003905   -0.000000
   -2    0    3    5    5    0.000766   -0.000000
   -2    0    3    6    5    0.000276   -0.000000
   -2    0    3    7    5   -0.000931   -0.000000
   -2    0    3    8    5    0.000276    0.000000
   -2    0    3    1    6    0.001202    0.000000
   -2    0    3    2    6   -0.005927   -0.000000
   -2    0    3    3    6    0.003994    0.000000
   -2    0    3    4    6    0.005822    0.000000
   -2    0    3    5    6   -0.000331    0.000000
   -2    0    3    6    6   -0.001862   -0.000000
   -2    0    3    7    6    0.000904    0.000000
   -2    0    3    8    6    0.001625    0.000000
   -2    0    3    1    7    0.011578    0.000000
   -2    0    3    2    7   -0.009465    0.000000
   -2    0    3    3    7    0.001828   -0.000000
   -2    0    3    4    7    0.007025   -0.000000
   -2    0    3    5    7    0.000853    0.000000
   -2    0    3    6    7    0.000925    0.000000
   -2    0    3    7    7    0.001372   -0.000000
   -2    0    3    8    7    0.000862   -0.000000
   -2    0    3    1    8   -0.001976    0.000000
   -2    0    3    2    8    0.006281    0.000000
   -2    0    3    3    8   -0.004297   -0.000000
   -2    0    3    4    8   -0.006259    0.000000
   -2    0    3    5    8   -0.000304    0.000000
   -2    0    3    6    8    0.001651    0.000000
   -2    0    3    7    8    0.000951   -0.000000
   -2    0    3    8    8   -0.001868    0.000000
   -2    1   -2    1    1    0.002825    0.000000
   -2    1   -2    2    1    0.003710    0.000000
   -2    1   -2    3    1   -0.000471   -0.000000
   -2    1   -2    4    1    0.004706   -0.000000
   -2    1   -2    5    1   -0.000500    0.000000
   -2    1   -2    6    1    0.000589   -0.000000
   -2    1   -2    7    1   -0.000954   -0.000000
   -2    1   -2    8    1   -0.000607   -0.000000
   -2    1   -2    1    2   -0.001860    0.000000
   -2    1   -2    2    2    0.014476    0.000000
   -2    1   -2    3    2   -0.003346   -0.000000
   -2    1   -2    4    2   -0.002615    0.000000
   -2    1   -2    5    2   -0.000890   -0.000000
   -2    1   -2    6    2    0.002278    0.000000
   -2    1   -2    7    2   -0.002462   -0.000000
   -2    1   -2    8    2   -0.000062   -0.000000
   -2    1   -2    1    3   -0.005779    0.000000
   -2    1   -2    2    3   -0.001716   -0.000000
   -2    1   -2    3    3    0.013871   -0.000000
   -2    1   -2    4    3   -0.001402   -0.000000
   -2    1   -2    5    3   -0.000543    0.000000
   -2    1   -2    6    3   -0.002250   -0.000000
   -2    1   -2    7    3    0.002723    0.000000
   -2    1   -2    8    3   -0.000115    0.000000
   -2    1   -2    1    4   -0.000874    0.000000
   -2    1   -2    2    4   -0.003063    0.000000
   -2    1   -2    3    4   -0.003208   -0.000000
   -2    1   -2    4    4    0.014300   -0.000000
   -2    1   -2    5    4    0.000330    0.000000
   -2    1   -2    6    4   -0.000047   -0.000000
   -2    1   -2    7    4    0.000189   -0.000000
   -2    1   -2    8    4   -0.005291    0.000000
   -2    1   -2    1    5    0.000259    0.000000
   -2    1   -2    2    5   -0.002680    0.000000
   -2    1   -2    3    5   -0.002551    0.000000
   -2    1   -2    4    5   -0.001768   -0.000000
   -2    1   -2    5    5   -0.000239   -0.000000
   -2    1   -2    6    5   -0.000106   -0.000000
   -2    1   -2    7    5   -0.000116   -0.000000
   -2    1   -2    8    5   -0.000110    0.000000
   -2    1   -2    1    6    0.000573    0.000000
   -2    1   -2    2    6   -0.008274   -0.000000
   -2    1   -2    3    6   -0.003467    0.000000
   -2    1   -2    4    6   -0.001038    0.000000
   -2    1   -2    5    6    0.000114   -0.000000
   -2    1   -2    6    6   -0.000987    0.000000
   -2    1   -2    7    6   -0.000346   -0.000000
   -2    1   -2    8    6   -0.000353   -0.000000
   -2    1   -2    1    7    0.001873   -0.000000
   -2    1   -2    2    7   -0.004241    0.000000
   -2    1   -2    3    7   -0.007829   -0.000000
   -2    1   -2    4    7   -0.001159   -0.000000
   -2    1   -2    5    7    0.000116    0.000000
   -2    1   -2    6    7   -0.000384   -0.000000
   -2    1   -2    7    7   -0.000954   -0.000000
   -2    1   -2    8    7   -0.000398   -0.000000
   -2    1   -2    1    8    0.000128    0.000000
   -2    1   -2    2    8    0.004508   -0.000000
   -2    1   -2    3    8    0.004771   -0.000000
   -2    1   -2    4    8    0.000738   -0.000000
   -2    1   -2    5    8    0.000120   -0.000000
   -2    1   -2    6    8   -0.000347    0.000000
   -2    1   -2    7    8   -0.000343   -0.000000
   -2    1   -2    8    8   -0.000973    0.000000
   -2    1   -1    1    1    0.007530    0.000000
   -2    1   -1    2    1    0.037316    0.000000
   -2    1   -1    3    1    0.011626    0.000000
   -2    1   -1    4    1   -0.003306   -0.000000
   -2    1   -1    5    1   -0.001062    0.000000
   -2    1   -1    6    1    0.000366    0.000000
   -2    1   -1    7    1   -0.001299   -0.000000
   -2    1   -1    8    1   -0.001297    0.000000
   -2    1   -1    1    2   -0.005424    0.000000
   -2    1   -1    2    2    0.085074    0.000000
   -2    1   -1    3    2   -0.048168    0.000000
   -2    1   -1    4    2    0.002091    0.000000
   -2    1   -1    5    2    0.002723    0.000000
   -2    1   -1    6    2   -0.008189    0.000000
   -2    1   -1    7    2    0.004866   -0.000000
   -2    1   -1    8    2    0.003685    0.000000
   -2    1   -1    1    3   -0.021085    0.000000
   -2    1   -1    2    3   -0.030823   -0.000000
   -2    1   -1    3    3    0.019359   -0.000000
   -2    1   -1    4    3    0.002637   -0.000000
   -2    1   -1    5    3    0.002023    0.000000
   -2    1   -1    6    3   -0.000830   -0.000000
   -2    1   -1    7    3    0.000329    0.000000
   -2    1   -1    8    3    0.000758   -0.000000
   -2    1   -1    1    4   -0.002049    0.000000
   -2    1   -1    2    4   -0.004410    0.000000
   -2    1   -1    3    4   -0.002659   -0.000000
   -2    1   -1    4    4   -0.007135    0.000000
   -2    1   -1    5    4   -0.002762    0.000000
   -2    1   -1    6    4    0.004146   -0.000000
   -2    1   -1    7    4   -0.004406    0.000000
   -2    1   -1    8    4   -0.008143   -0.000000
   -2    1   -1    1    5    0.000143    0.000000
   -2    1   -1    2    5   -0.002459    0.000000
   -2    1   -1    3    5   -0.001673    0.000000
   -2    1   -1    4    5   -0.002713   -0.000000
   -2    1   -1    5    5   -0.000256   -0.000000
   -2    1   -1    6    5    0.000216    0.000000
   -2    1   -1    7    5   -0.000293   -0.000000
   -2    1   -1    8    5   -0.000014    0.000000
   -2    1   -1    1    6   -0.000836   -0.000000
   -2    1   -1    2    6   -0.008280    0.000000
   -2    1   -1    3    6   -0.000947   -0.000000
   -2    1   -1    4    6   -0.004381   -0.000000
   -2    1   -1    5    6   -0.000047    0.000000
   -2    1   -1    6    6    0.000862    0.000000
   -2    1   -1    7    6    0.002827    0.000000
   -2    1   -1    8    6   -0.000046   -0.000000
   -2    1   -1    1    7    0.001406    0.000000
   -2    1   -1    2    7    0.003956   -0.000000
   -2    1   -1    3    7    0.002414   -0.000000
   -2    1   -1    4    7    0.003715    0.000000
   -2    1   -1    5    7    0.000434    0.000000
   -2    1   -1    6    7    0.002593   -0.000000
   -2    1   -1    7    7    0.002529    0.000000
   -2    1   -1    8    7   -0.000014   -0.000000
   -2    1   -1    1    8   -0.001092   -0.000000
   -2    1   -1    2    8   -0.004156    0.000000
   -2    1   -1    3    8   -0.001003   -0.000000
   -2    1   -1    4    8   -0.008239   -0.000000
   -2    1   -1    5    8   -0.000011    0.000000
   -2    1   -1    6    8    0.000023   -0.000000
   -2    1   -1    7    8    0.000036   -0.000000
   -2    1   -1    8    8   -0.001295   -0.000000
   -2    1    0    1    1    0.021461    0.000000
   -2    1    0    2    1   -0.039034   -0.000000
   -2    1    0    3    1    0.044144    0.000000
   -2    1    0    4    1    0.025153   -0.000000
   -2    1    0    5    1    0.004153    0.000000
   -2    1    0    6    1   -0.011759   -0.000000
   -2    1    0    7    1    0.003063   -0.000000
   -2    1    0    8    1    0.001771   -0.000000
   -2    1    0    1    2    0.014216    0.000000
   -2    1    0    2    2   -0.036888   -0.000000
   -2    1    0    3    2    0.041935    0.000000
   -2    1    0    4    2    0.002260    0.000000
   -2    1    0    5    2   -0.002586    0.000000
   -2    1    0    6    2   -0.000465   -0.000000
   -2    1    0    7    2   -0.003942   -0.000000
   -2    1    0    8    2   -0.003855    0.000000
   -2    1    0    1    3   -0.014069    0.000000
   -2    1    0    2    3    0.021340    0.000000
   -2    1    0    3    3   -0.002259   -0.000000
   -2    1    0    4    3   -0.019951   -0.000000
   -2    1    0    5    3   -0.002883    0.000000
   -2    1    0    6    3    0.005559    0.000000
   -2    1    0    7    3   -0.005916    0.000000
   -2    1    0    8    3   -0.005464   -0.000000
   -2    1    0    1    4   -0.026067    0.000000
   -2    1    0    2    4    0.016053    0.000000
   -2    1    0    3    4   -0.053480   -0.000000
   -2    1    0    4    4   -0.036868    0.000000
   -2    1    0    5    4   -0.006045    0.000000
   -2    1    0    6    4    0.010233    0.000000
   -2    1    0    7    4   -0.006846   -0.000000
   -2    1    0    8    4   -0.005730   -0.000000
   -2    1    0    1    5   -0.006096   -0.000000
   -2    1    0    2    5    0.008364   -0.000000
   -2    1    0    3    5   -0.002882   -0.000000
   -2    1    0    4    5   -0.000957   -0.000000
   -2    1    0    5    5   -0.002312   -0.000000
   -2    1    0    6    5    0.003485   -0.000000
   -2    1    0    7    5   -0.002949   -0.000000
   -2    1    0    8    5   -0.003392   -0.000000
   -2    1    0    1    6    0.009877   -0.000000
   -2    1    0    2    6   -0.024569    0.000000
   -2    1    0    3    6    0.040229   -0.000000
   -2    1    0    4    6   -0.004326   -0.000000
   -2    1    0    5    6   -0.002974    0.000000
   -2    1    0    6    6    0.001810   -0.000000
[...]
    3   -2    1    2    7   -0.003732    0.000000
    3   -2    1    3    7   -0.007987   -0.000000
    3   -2    1    4    7    0.000734   -0.000000
    3   -2    1    5    7   -0.000077    0.000000
    3   -2    1    6    7   -0.000360    0.000000
    3   -2    1    7    7   -0.000978   -0.000000
    3   -2    1    8    7    0.000379   -0.000000
    3   -2    1    1    8    0.001652    0.000000
    3   -2    1    2    8   -0.004764    0.000000
    3   -2    1    3    8   -0.003956    0.000000
    3   -2    1    4    8    0.000711    0.000000
    3   -2    1    5    8    0.000082    0.000000
    3   -2    1    6    8    0.000353    0.000000
    3   -2    1    7    8    0.000389    0.000000
    3   -2    1    8    8   -0.000986    0.000000
    3   -1   -2    1    1    0.001503    0.000000
    3   -1   -2    2    1   -0.002621    0.000000
    3   -1   -2    3    1    0.000302   -0.000000
    3   -1   -2    4    1   -0.004304   -0.000000
    3   -1   -2    5    1    0.004817    0.000000
    3   -1   -2    6    1    0.003087   -0.000000
    3   -1   -2    7    1   -0.010934   -0.000000
    3   -1   -2    8    1   -0.003818    0.000000
    3   -1   -2    1    2   -0.000155   -0.000000
    3   -1   -2    2    2   -0.009296    0.000000
    3   -1   -2    3    2    0.002200    0.000000
    3   -1   -2    4    2    0.004077    0.000000
    3   -1   -2    5    2   -0.005535    0.000000
    3   -1   -2    6    2   -0.006179    0.000000
    3   -1   -2    7    2    0.009341   -0.000000
    3   -1   -2    8    2    0.006645   -0.000000
    3   -1   -2    1    3    0.004373    0.000000
    3   -1   -2    2    3    0.001972    0.000000
    3   -1   -2    3    3   -0.001218    0.000000
    3   -1   -2    4    3    0.000752   -0.000000
    3   -1   -2    5    3   -0.000454   -0.000000
    3   -1   -2    6    3   -0.002815   -0.000000
    3   -1   -2    7    3   -0.004556   -0.000000
    3   -1   -2    8    3    0.002376    0.000000
    3   -1   -2    1    4   -0.002545    0.000000
    3   -1   -2    2    4    0.004089   -0.000000
    3   -1   -2    3    4    0.002595    0.000000
    3   -1   -2    4    4   -0.008908   -0.000000
    3   -1   -2    5    4    0.003654    0.000000
    3   -1   -2    6    4    0.005711   -0.000000
    3   -1   -2    7    4   -0.007006    0.000000
    3   -1   -2    8    4   -0.006155    0.000000
    3   -1   -2    1    5    0.001313   -0.000000
    3   -1   -2    2    5    0.001437    0.000000
    3   -1   -2    3    5   -0.001995   -0.000000
    3   -1   -2    4    5    0.002123   -0.000000
    3   -1   -2    5    5    0.000766    0.000000
    3   -1   -2    6    5   -0.000326   -0.000000
    3   -1   -2    7    5   -0.000852   -0.000000
    3   -1   -2    8    5   -0.000326    0.000000
    3   -1   -2    1    6    0.000533   -0.000000
    3   -1   -2    2    6    0.001614    0.000000
    3   -1   -2    3    6   -0.004432   -0.000000
    3   -1   -2    4    6    0.004453   -0.000000
    3   -1   -2    5    6    0.000213    0.000000
    3   -1   -2    6    6   -0.001840    0.000000
    3   -1   -2    7    6   -0.000963   -0.000000
    3   -1   -2    8    6    0.001671   -0.000000
    3   -1   -2    1    7    0.003202    0.000000
    3   -1   -2    2    7    0.001065   -0.000000
    3   -1   -2    3    7   -0.007540    0.000000
    3   -1   -2    4    7    0.003695    0.000000
    3   -1   -2    5    7    0.000890    0.000000
    3   -1   -2    6    7   -0.000914   -0.000000
    3   -1   -2    7    7    0.001375    0.000000
    3   -1   -2    8    7   -0.000950    0.000000
    3   -1   -2    1    8   -0.002852   -0.000000
    3   -1   -2    2    8   -0.001097    0.000000
    3   -1   -2    3    8    0.003382   -0.000000
    3   -1   -2    4    8   -0.007927   -0.000000
    3   -1   -2    5    8    0.000241   -0.000000
    3   -1   -2    6    8    0.001637    0.000000
    3   -1   -2    7    8   -0.000896    0.000000
    3   -1   -2    8    8   -0.001834   -0.000000
    3   -1   -1    1    1    0.009983    0.000000
    3   -1   -1    2    1    0.006674   -0.000000
    3   -1   -1    3    1   -0.004506   -0.000000
    3   -1   -1    4    1   -0.008978   -0.000000
    3   -1   -1    5    1    0.001785    0.000000
    3   -1   -1    6    1   -0.000033   -0.000000
    3   -1   -1    7    1    0.000718   -0.000000
    3   -1   -1    8    1   -0.007310    0.000000
    3   -1   -1    1    2   -0.008785    0.000000
    3   -1   -1    2    2    0.001074    0.000000
    3   -1   -1    3    2   -0.000409   -0.000000
    3   -1   -1    4    2    0.004077   -0.000000
    3   -1   -1    5    2   -0.005660    0.000000
    3   -1   -1    6    2   -0.006420   -0.000000
    3   -1   -1    7    2    0.006244   -0.000000
    3   -1   -1    8    2    0.010679   -0.000000
    3   -1   -1    1    3    0.011279   -0.000000
    3   -1   -1    2    3    0.003538   -0.000000
    3   -1   -1    3    3    0.002219    0.000000
    3   -1   -1    4    3   -0.006330   -0.000000
    3   -1   -1    5    3    0.007227   -0.000000
    3   -1   -1    6    3    0.006205   -0.000000
    3   -1   -1    7    3   -0.005810   -0.000000
    3   -1   -1    8    3   -0.013060    0.000000
    3   -1   -1    1    4    0.006049    0.000000
    3   -1   -1    2    4    0.000033   -0.000000
    3   -1   -1    3    4    0.001423    0.000000
    3   -1   -1    4    4    0.001362   -0.000000
    3   -1   -1    5    4   -0.002966    0.000000
    3   -1   -1    6    4   -0.004001    0.000000
    3   -1   -1    7    4    0.003804   -0.000000
    3   -1   -1    8    4    0.000199    0.000000
    3   -1   -1    1    5    0.000368   -0.000000
    3   -1   -1    2    5    0.000648    0.000000
    3   -1   -1    3    5   -0.000726   -0.000000
    3   -1   -1    4    5    0.000656   -0.000000
    3   -1   -1    5    5   -0.001080    0.000000
    3   -1   -1    6    5   -0.001684   -0.000000
    3   -1   -1    7    5    0.001655    0.000000
    3   -1   -1    8    5    0.001805   -0.000000
    3   -1   -1    1    6   -0.000069    0.000000
    3   -1   -1    2    6    0.000492   -0.000000
    3   -1   -1    3    6   -0.000111   -0.000000
    3   -1   -1    4    6    0.000064   -0.000000
    3   -1   -1    5    6    0.001745    0.000000
    3   -1   -1    6    6    0.001367   -0.000000
    3   -1   -1    7    6   -0.001256   -0.000000
    3   -1   -1    8    6   -0.001391   -0.000000
    3   -1   -1    1    7   -0.000297    0.000000
    3   -1   -1    2    7    0.000039   -0.000000
    3   -1   -1    3    7    0.000442    0.000000
    3   -1   -1    4    7    0.000004    0.000000
    3   -1   -1    5    7   -0.001822    0.000000
    3   -1   -1    6    7   -0.001342   -0.000000
    3   -1   -1    7    7    0.001335    0.000000
    3   -1   -1    8    7    0.001403   -0.000000
    3   -1   -1    1    8    0.000065    0.000000
    3   -1   -1    2    8   -0.000030   -0.000000
    3   -1   -1    3    8   -0.000047   -0.000000
    3   -1   -1    4    8    0.000493    0.000000
    3   -1   -1    5    8   -0.001734   -0.000000
    3   -1   -1    6    8   -0.001274    0.000000
    3   -1   -1    7    8    0.001185    0.000000
    3   -1   -1    8    8    0.001393    0.000000
    3   -1    0    1    1    0.001157    0.000000
    3   -1    0    2    1   -0.003757   -0.000000
    3   -1    0    3    1    0.005404    0.000000
    3   -1    0    4    1   -0.003187   -0.000000
    3   -1    0    5    1   -0.004911   -0.000000
    3   -1    0    6    1    0.006811    0.000000
    3   -1    0    7    1    0.003622    0.000000
    3   -1    0    8    1   -0.000059    0.000000
    3   -1    0    1    2   -0.000684    0.000000
    3   -1    0    2    2   -0.009384    0.000000
    3   -1    0    3    2    0.003311   -0.000000
    3   -1    0    4    2    0.003688   -0.000000
    3   -1    0    5    2    0.002567    0.000000
    3   -1    0    6    2    0.008298   -0.000000
    3   -1    0    7    2   -0.003690    0.000000
    3   -1    0    8    2    0.000010   -0.000000
    3   -1    0    1    3    0.006931   -0.000000
    3   -1    0    2    3    0.003099   -0.000000
    3   -1    0    3    3   -0.007887    0.000000
    3   -1    0    4    3   -0.000290    0.000000
    3   -1    0    5    3    0.002804    0.000000
    3   -1    0    6    3   -0.000227   -0.000000
    3   -1    0    7    3    0.007653   -0.000000
    3   -1    0    8    3    0.000081    0.000000
    3   -1    0    1    4    0.000026    0.000000
    3   -1    0    2    4    0.001431   -0.000000
    3   -1    0    3    4    0.003614    0.000000
    3   -1    0    4    4   -0.001844   -0.000000
    3   -1    0    5    4    0.000465    0.000000
    3   -1    0    6    4   -0.001239    0.000000
    3   -1    0    7    4   -0.000792    0.000000
    3   -1    0    8    4   -0.000296    0.000000
    3   -1    0    1    5   -0.000595   -0.000000
    3   -1    0    2    5    0.001120   -0.000000
    3   -1    0    3    5    0.001150   -0.000000
    3   -1    0    4    5   -0.001066   -0.000000
    3   -1    0    5    5    0.000739    0.000000
    3   -1    0    6    5   -0.000198    0.000000
    3   -1    0    7    5   -0.000279   -0.000000
    3   -1    0    8    5   -0.000867    0.000000
    3   -1    0    1    6    0.000567   -0.000000
    3   -1    0    2    6    0.000524   -0.000000
    3   -1    0    3    6   -0.000178   -0.000000
    3   -1    0    4    6    0.000103    0.000000
    3   -1    0    5    6    0.000315    0.000000
    3   -1    0    6    6   -0.001816   -0.000000
    3   -1    0    7    6    0.001547    0.000000
    3   -1    0    8    6   -0.000835    0.000000
    3   -1    0    1    7   -0.000189    0.000000
    3   -1    0    2    7    0.000110   -0.000000
    3   -1    0    3    7    0.000651   -0.000000
    3   -1    0    4    7    0.000134   -0.000000
    3   -1    0    5    7    0.000298   -0.000000
    3   -1    0    6    7    0.001674    0.000000
    3   -1    0    7    7   -0.001806   -0.000000
    3   -1    0    8    7   -0.000974   -0.000000
    3   -1    0    1    8   -0.000068    0.000000
    3   -1    0    2    8   -0.000030    0.000000
    3   -1    0    3    8    0.000284    0.000000
    3   -1    0    4    8    0.000673    0.000000
    3   -1    0    5    8    0.000835    0.000000
    3   -1    0    6    8   -0.001014    0.000000
    3   -1    0    7    8   -0.000769   -0.000000
    3   -1    0    8    8    0.001389   -0.000000
    3    0   -2    1    1    0.002583    0.000000
    3    0   -2    2    1    0.001152    0.000000
    3    0   -2    3    1   -0.001161   -0.000000
    3    0   -2    4    1   -0.000562   -0.000000
    3    0   -2    5    1   -0.000239    0.000000
    3    0   -2    6    1   -0.001133    0.000000
    3    0   -2    7    1    0.001332    0.000000
    3    0   -2    8    1   -0.000092    0.000000
    3    0   -2    1    2   -0.001025    0.000000
    3    0   -2    2    2   -0.009538    0.000000
    3    0   -2    3    2   -0.002718   -0.000000
    3    0   -2    4    2    0.004179    0.000000
    3    0   -2    5    2    0.001600   -0.000000
    3    0   -2    6    2    0.001581   -0.000000
    3    0   -2    7    2   -0.000955   -0.000000
    3    0   -2    8    2   -0.000893   -0.000000
    3    0   -2    1    3    0.003441    0.000000
    3    0   -2    2    3   -0.002395   -0.000000
    3    0   -2    3    3   -0.001682    0.000000
    3    0   -2    4    3   -0.003759   -0.000000
    3    0   -2    5    3    0.003110   -0.000000
    3    0   -2    6    3    0.003645    0.000000
    3    0   -2    7    3   -0.008094   -0.000000
    3    0   -2    8    3   -0.004778    0.000000
    3    0   -2    1    4   -0.003495    0.000000
    3    0   -2    2    4    0.004041   -0.000000
    3    0   -2    3    4   -0.002284    0.000000
    3    0   -2    4    4   -0.009222   -0.000000
    3    0   -2    5    4    0.002319    0.000000
    3    0   -2    6    4    0.004517    0.000000
    3    0   -2    7    4   -0.003764   -0.000000
    3    0   -2    8    4   -0.008090    0.000000
    3    0   -2    1    5    0.003615   -0.000000
    3    0   -2    2    5   -0.005438    0.000000
    3    0   -2    3    5    0.003418    0.000000
    3    0   -2    4    5    0.003905   -0.000000
    3    0   -2    5    5    0.000766   -0.000000
    3    0   -2    6    5    0.000276   -0.000000
    3    0   -2    7    5   -0.000931   -0.000000
    3    0   -2    8    5    0.000276    0.000000
    3    0   -2    1    6    0.001202    0.000000
    3    0   -2    2    6   -0.005927   -0.000000
    3    0   -2    3    6    0.003994    0.000000
    3    0   -2    4    6    0.005822    0.000000
    3    0   -2    5    6   -0.000331    0.000000
    3    0   -2    6    6   -0.001862   -0.000000
    3    0   -2    7    6    0.000904    0.000000
    3    0   -2    8    6    0.001625    0.000000
    3    0   -2    1    7    0.011578    0.000000
    3    0   -2    2    7   -0.009465    0.000000
    3    0   -2    3    7    0.001828   -0.000000
    3    0   -2    4    7    0.007025   -0.000000
    3    0   -2    5    7    0.000853    0.000000
    3    0   -2    6    7    0.000925    0.000000
    3    0   -2    7    7    0.001372   -0.000000
    3    0   -2    8    7    0.000862   -0.000000
    3    0   -2    1    8   -0.001976    0.000000
    3    0   -2    2    8    0.006281    0.000000
    3    0   -2    3    8   -0.004297   -0.000000
    3    0   -2    4    8   -0.006259    0.000000
    3    0   -2    5    8   -0.000304    0.000000
    3    0   -2    6    8    0.001651    0.000000
    3    0   -2    7    8    0.000951   -0.000000
    3    0   -2    8    8   -0.001868    0.000000
    3    0   -1    1    1    0.001694    0.000000
    3    0   -1    2    1   -0.002221   -0.000000
    3    0   -1    3    1    0.007080    0.000000
    3    0   -1    4    1   -0.002038   -0.000000
    3    0   -1    5    1   -0.003989    0.000000
    3    0   -1    6    1   -0.004787   -0.000000
    3    0   -1    7    1   -0.007160   -0.000000
    3    0   -1    8    1   -0.000062   -0.000000
    3    0   -1    1    2   -0.003875    0.000000
    3    0   -1    2    2   -0.009424    0.000000
    3    0   -1    3    2    0.002966    0.000000
    3    0   -1    4    2   -0.000702   -0.000000
    3    0   -1    5    2   -0.003103    0.000000
    3    0   -1    6    2    0.007952   -0.000000
    3    0   -1    7    2   -0.002463   -0.000000
    3    0   -1    8    2   -0.000057   -0.000000
    3    0   -1    1    3    0.003823   -0.000000
    3    0   -1    2    3    0.003443   -0.000000
    3    0   -1    3    3   -0.008106    0.000000
    3    0   -1    4    3   -0.005053    0.000000
    3    0   -1    5    3   -0.002209    0.000000
    3    0   -1    6    3   -0.003974    0.000000
    3    0   -1    7    3    0.007438   -0.000000
    3    0   -1    8    3    0.000005    0.000000
    3    0   -1    1    4    0.001401    0.000000
    3    0   -1    2    4   -0.003400   -0.000000
    3    0   -1    3    4   -0.001188    0.000000
    3    0   -1    4    4   -0.002091   -0.000000
    3    0   -1    5    4    0.000491    0.000000
    3    0   -1    6    4    0.000805   -0.000000
    3    0   -1    7    4    0.001212    0.000000
    3    0   -1    8    4   -0.000344   -0.000000
    3    0   -1    1    5    0.000035    0.000000
    3    0   -1    2    5   -0.000886    0.000000
    3    0   -1    3    5   -0.001056    0.000000
    3    0   -1    4    5   -0.000936   -0.000000
    3    0   -1    5    5    0.000738   -0.000000
    3    0   -1    6    5    0.000340   -0.000000
    3    0   -1    7    5    0.000262    0.000000
    3    0   -1    8    5   -0.000837   -0.000000
    3    0   -1    1    6    0.000019   -0.000000
    3    0   -1    2    6    0.000587   -0.000000
    3    0   -1    3    6    0.000048   -0.000000
    3    0   -1    4    6   -0.000272   -0.000000
    3    0   -1    5    6   -0.000257    0.000000
    3    0   -1    6    6   -0.001817    0.000000
    3    0   -1    7    6    0.001657   -0.000000
    3    0   -1    8    6    0.000997    0.000000
    3    0   -1    1    7   -0.000692   -0.000000
    3    0   -1    2    7   -0.000141   -0.000000
    3    0   -1    3    7    0.000349   -0.000000
    3    0   -1    4    7   -0.000192   -0.000000
    3    0   -1    5    7   -0.000272   -0.000000
    3    0   -1    6    7    0.001548   -0.000000
    3    0   -1    7    7   -0.001834    0.000000
    3    0   -1    8    7    0.000761   -0.000000
    3    0   -1    1    8    0.000161    0.000000
    3    0   -1    2    8   -0.000138   -0.000000
    3    0   -1    3    8    0.000145   -0.000000
    3    0   -1    4    8    0.000563    0.000000
    3    0   -1    5    8    0.000888    0.000000
    3    0   -1    6    8    0.000814   -0.000000
    3    0   -1    7    8    0.000978   -0.000000
    3    0   -1    8    8    0.001387   -0.000000
    3    1   -2    1    1    0.002825    0.000000
    3    1   -2    2    1    0.003710    0.000000
    3    1   -2    3    1   -0.000471   -0.000000
    3    1   -2    4    1    0.004706   -0.000000
    3    1   -2    5    1   -0.000500    0.000000
    3    1   -2    6    1    0.000589   -0.000000
    3    1   -2    7    1   -0.000954   -0.000000
    3    1   -2    8    1   -0.000607   -0.000000
    3    1   -2    1    2   -0.001860    0.000000
    3    1   -2    2    2    0.014476    0.000000
    3    1   -2    3    2   -0.003346   -0.000000
    3    1   -2    4    2   -0.002615    0.000000
    3    1   -2    5    2   -0.000890   -0.000000
    3    1   -2    6    2    0.002278    0.000000
    3    1   -2    7    2   -0.002462   -0.000000
    3    1   -2    8    2   -0.000062   -0.000000
    3    1   -2    1    3   -0.005779    0.000000
    3    1   -2    2    3   -0.001716   -0.000000
    3    1   -2    3    3    0.013871   -0.000000
    3    1   -2    4    3   -0.001402   -0.000000
    3    1   -2    5    3   -0.000543    0.000000
    3    1   -2    6    3   -0.002250   -0.000000
    3    1   -2    7    3    0.002723    0.000000
    3    1   -2    8    3   -0.000115    0.000000
    3    1   -2    1    4   -0.000874    0.000000
    3    1   -2    2    4   -0.003063    0.000000
    3    1   -2    3    4   -0.003208   -0.000000
    3    1   -2    4    4    0.014300   -0.000000
    3    1   -2    5    4    0.000330    0.000000
    3    1   -2    6    4   -0.000047   -0.000000
    3    1   -2    7    4    0.000189   -0.000000
    3    1   -2    8    4   -0.005291    0.000000
    3    1   -2    1    5    0.000259    0.000000
    3    1   -2    2    5   -0.002680    0.000000
    3    1   -2    3    5   -0.002551    0.000000
    3    1   -2    4    5   -0.001768   -0.000000
    3    1   -2    5    5   -0.000239   -0.000000
    3    1   -2    6    5   -0.000106   -0.000000
    3    1   -2    7    5   -0.000116   -0.000000
    3    1   -2    8    5   -0.000110    0.000000
    3    1   -2    1    6    0.000573    0.000000
    3    1   -2    2    6   -0.008274   -0.000000
    3    1   -2    3    6   -0.003467    0.000000
    3    1   -2    4    6   -0.001038    0.000000
    3    1   -2    5    6    0.000114   -0.000000
    3    1   -2    6    6   -0.000987    0.000000
    3    1   -2    7    6   -0.000346   -0.000000
    3    1   -2    8    6   -0.000353   -0.000000
    3    1   -2    1    7    0.001873   -0.000000
    3    1   -2    2    7   -0.004241    0.000000
    3    1   -2    3    7   -0.007829   -0.000000
    3    1   -2    4    7   -0.001159   -0.000000
    3    1   -2    5    7    0.000116    0.000000
    3    1   -2    6    7   -0.000384   -0.000000
    3    1   -2    7    7   -0.000954   -0.000000
    3    1   -2    8    7   -0.000398   -0.000000
    3    1   -2    1    8    0.000128    0.000000
    3    1   -2    2    8    0.004508   -0.000000
    3    1   -2    3    8    0.004771   -0.000000
    3    1   -2    4    8    0.000738   -0.000000
    3    1   -2    5    8    0.000120   -0.000000
    3    1   -2    6    8   -0.000347    0.000000
    3    1   -2    7    8   -0.000343   -0.000000
    3    1   -2    8    8   -0.000973    0.000000
