 written on  1Aug2024 at 13:42:44 
  -2.0382519630600293        0.0000000000000000        2.0382519630600293     
   0.0000000000000000        2.0382519630600293        2.0382519630600293     
  -2.0382519630600293        2.0382519630600293        0.0000000000000000     
           8
         165
    3    2    2    2    1    2    3    2    2    3    3    1    3    2    1
    1    2    2    1    1    1    2    3    1    1    1    1    3    1    1
    1    1    1    3    2    2    3    3    2    1    1    2    1    1    1
    1    1    2    1    1    1    1    2    1    1    1    1    1    3    1
    1    1    1    3    2    1    2    2    2    2    1    1    1    2    2
    1    1    1    1    2    1    1    1    1    1    2    1    1    1    1
    2    2    1    1    1    2    2    2    2    1    2    3    1    1    1
    1    3    1    1    1    1    1    2    1    1    1    1    2    1    1
    1    1    1    2    1    1    2    3    3    2    2    3    1    1    1
    1    1    3    1    1    1    1    3    2    1    1    1    2    2    1
    1    2    3    1    3    3    2    2    3    2    1    2    2    2    3

   -3   -1    2
    1    1    0.28246412E-02 -0.26537576E-09
    2    1   -0.18601286E-02 -0.56184979E-09
    3    1   -0.57791981E-02 -0.62316533E-09
    4    1   -0.87411982E-03 -0.11303965E-08
    5    1    0.25940358E-03 -0.21949785E-09
    6    1    0.57346103E-03 -0.57974441E-09
    7    1    0.18732747E-02  0.52062410E-09
    8    1    0.12844597E-03 -0.47829664E-09
    1    2    0.37100978E-02 -0.86041664E-09
    2    2    0.14475660E-01 -0.17688906E-08
    3    2   -0.17160491E-02  0.81771126E-09
    4    2   -0.30632589E-02 -0.33798313E-09
    5    2   -0.26795258E-02 -0.11641176E-08
    6    2   -0.82737887E-02  0.11044670E-08
    7    2   -0.42412863E-02 -0.65783023E-09
    8    2    0.45083787E-02  0.92986317E-09
    1    3   -0.47118265E-03  0.36838594E-09
    2    3   -0.33459674E-02  0.96496563E-09
    3    3    0.13870829E-01  0.25291357E-09
    4    3   -0.32083096E-02  0.12201768E-10
    5    3   -0.25513280E-02 -0.23285046E-09
    6    3   -0.34671934E-02 -0.73076869E-09
    7    3   -0.78291587E-02  0.71649825E-09
    8    3    0.47705542E-02  0.82368874E-09
    1    4    0.47061746E-02  0.12177684E-08
    2    4   -0.26145858E-02 -0.36053196E-09
    3    4   -0.14016584E-02  0.89721282E-09
    4    4    0.14299762E-01  0.18823279E-08
    5    4   -0.17679221E-02  0.63920203E-09
    6    4   -0.10384475E-02 -0.11799633E-08
    7    4   -0.11593333E-02  0.29009991E-08
    8    4    0.73782332E-03  0.37099698E-11
    1    5   -0.49981992E-03 -0.25504598E-11
    2    5   -0.88955409E-03  0.41957084E-09
    3    5   -0.54250282E-03 -0.95278861E-09
    4    5    0.32982727E-03 -0.17125550E-08
    5    5   -0.23949347E-03  0.60034380E-10
    6    5    0.11436380E-03  0.21146683E-09
    7    5    0.11635741E-03 -0.10617144E-09
    8    5    0.12045635E-03  0.44657054E-10
    1    6    0.58920578E-03  0.82747146E-10
    2    6    0.22776014E-02 -0.36797619E-09
    3    6   -0.22501541E-02  0.85368360E-10
    4    6   -0.47089333E-04  0.52938338E-09
    5    6   -0.10629387E-03  0.82369491E-10
    6    6   -0.98694251E-03 -0.20636977E-09
    7    6   -0.38384181E-03  0.36257295E-11
    8    6   -0.34651705E-03 -0.14913795E-09
    1    7   -0.95432152E-03  0.12230191E-09
    2    7   -0.24621420E-02  0.58431169E-09
    3    7    0.27233385E-02 -0.82373622E-10
    4    7    0.18926500E-03  0.58781154E-09
    5    7   -0.11572774E-03  0.22202043E-10
    6    7   -0.34619528E-03  0.21696846E-11
    7    7   -0.95368490E-03  0.21895890E-09
    8    7   -0.34265317E-03  0.34789006E-09
    1    8   -0.60747773E-03  0.17619021E-09
    2    8   -0.61851037E-04  0.19236853E-09
    3    8   -0.11463224E-03 -0.81294700E-10
    4    8   -0.52911132E-02 -0.23259172E-13
    5    8   -0.10982728E-03 -0.10213909E-09
    6    8   -0.35250215E-03  0.58197300E-10
    7    8   -0.39760880E-03  0.38868833E-09
    8    8   -0.97314719E-03 -0.13188348E-09

   -3    0    1
    1    1    0.16940494E-02 -0.87283604E-09
    2    1   -0.38753782E-02 -0.12444864E-08
    3    1    0.38232879E-02  0.63467339E-09
    4    1    0.14010386E-02 -0.13094801E-08
    5    1    0.35223093E-04 -0.61435237E-10
    6    1    0.18881259E-04  0.35886329E-09
    7    1   -0.69219694E-03  0.17525423E-09
    8    1    0.16058221E-03 -0.87916951E-09
    1    2   -0.22212057E-02  0.82561508E-09
    2    2   -0.94236564E-02 -0.12854292E-08
    3    2    0.34425582E-02  0.64238780E-09
    4    2   -0.33995555E-02  0.73215697E-09
    5    2   -0.88644247E-03 -0.56621026E-09
    6    2    0.58710108E-03  0.30593493E-09
    7    2   -0.14138659E-03  0.13930039E-09
    8    2   -0.13780533E-03  0.42116570E-09
    1    3    0.70796003E-02 -0.47110748E-09
    2    3    0.29661188E-02 -0.26938131E-09
    3    3   -0.81055483E-02 -0.60604212E-09
    4    3   -0.11875986E-02 -0.97099923E-09
    5    3   -0.10562201E-02 -0.93056189E-10
    6    3    0.47579307E-04  0.20079635E-10
    7    3    0.34882890E-03  0.51193715E-09
    8    3    0.14496919E-03  0.10339505E-08
    1    4   -0.20383222E-02  0.25527301E-08
    2    4   -0.70219559E-03  0.60110772E-09
    3    4   -0.50533017E-02 -0.11934562E-09
    4    4   -0.20906655E-02  0.22005002E-08
    5    4   -0.93587854E-03  0.15229113E-08
    6    4   -0.27192349E-03  0.28013172E-09
    7    4   -0.19249008E-03  0.50703991E-09
    8    4    0.56312793E-03 -0.17936507E-09
    1    5   -0.39888916E-02 -0.32568673E-09
    2    5   -0.31030517E-02 -0.59043403E-09
    3    5   -0.22088632E-02 -0.21874415E-09
    4    5    0.49132979E-03 -0.23346197E-08
    5    5    0.73824541E-03  0.12397661E-09
    6    5   -0.25681769E-03 -0.52928497E-10
    7    5   -0.27207060E-03  0.13423982E-09
    8    5    0.88802380E-03 -0.12438159E-09
    1    6   -0.47865581E-02  0.72098985E-10
    2    6    0.79520771E-02  0.24737979E-09
    3    6   -0.39740860E-02 -0.36824025E-09
    4    6    0.80461619E-03  0.71068548E-09
    5    6    0.34020790E-03  0.10811693E-09
    6    6   -0.18166469E-02 -0.32959304E-11
    7    6    0.15475080E-02  0.17023642E-09
    8    6    0.81350587E-03  0.14457947E-09
    1    7   -0.71603537E-02  0.17341092E-09
    2    7   -0.24634313E-02  0.47578485E-09
    3    7    0.74381057E-02  0.55163616E-09
    4    7    0.12123657E-02 -0.26373948E-09
    5    7    0.26183640E-03 -0.23070280E-09
    6    7    0.16569366E-02  0.13842817E-09
    7    7   -0.18344320E-02 -0.10892823E-09
    8    7    0.97818372E-03  0.29569995E-09
    1    8   -0.61790894E-04  0.48041626E-09
    2    8   -0.56840410E-04  0.52418220E-09
    3    8    0.54214920E-05 -0.83053868E-09
    4    8   -0.34377193E-03  0.61634037E-09
    5    8   -0.83722690E-03  0.89598524E-10
    6    8    0.99712235E-03 -0.13156056E-10
    7    8    0.76144016E-03  0.16949773E-09
    8    8    0.13873995E-02  0.32118766E-09

   -3    0    2
    1    1    0.25826076E-02 -0.32511657E-09
    2    1   -0.10254874E-02 -0.45119643E-10
    3    1    0.34411304E-02 -0.52231665E-10
    4    1   -0.34950972E-02 -0.21622209E-08
    5    1    0.36151550E-02  0.26399452E-10
    6    1    0.12022899E-02 -0.26293452E-09
    7    1    0.11577965E-01 -0.13704869E-09
    8    1   -0.19755245E-02 -0.21405772E-09
    1    2    0.11524201E-02 -0.14025525E-08
    2    2   -0.95378602E-02 -0.24685915E-08
    3    2   -0.23948982E-02  0.87776429E-09
    4    2    0.40414263E-02  0.46943337E-09
    5    2   -0.54381426E-02 -0.19087171E-09
    6    2   -0.59268717E-02  0.30691598E-09
    7    2   -0.94653800E-02 -0.30705806E-09
    8    2    0.62812147E-02 -0.30749308E-09
    1    3   -0.11611647E-02  0.41118967E-09
    2    3   -0.27176434E-02  0.99838282E-09
    3    3   -0.16816320E-02 -0.14720202E-08
    4    3   -0.22835036E-02 -0.14183359E-08
    5    3    0.34182769E-02 -0.36321817E-09
    6    3    0.39944051E-02 -0.70236144E-09
    7    3    0.18279234E-02  0.24202503E-09
    8    3   -0.42974086E-02  0.13189373E-08
    1    4   -0.56228143E-03  0.35034556E-08
    2    4    0.41794437E-02 -0.22178881E-09
    3    4   -0.37594722E-02  0.22426993E-09
    4    4   -0.92222862E-02  0.39124067E-08
    5    4    0.39051900E-02  0.85426116E-09
    6    4    0.58220322E-02 -0.19057351E-08
    7    4    0.70247000E-02  0.94257229E-09
    8    4   -0.62586109E-02 -0.55116949E-09
    1    5   -0.23936609E-03 -0.47222374E-09
    2    5    0.16000756E-02  0.33607543E-09
    3    5    0.31103460E-02  0.25945233E-09
    4    5    0.23189021E-02 -0.19238052E-08
    5    5    0.76603659E-03  0.90194491E-10
    6    5   -0.33118498E-03 -0.18850443E-09
    7    5    0.85340213E-03 -0.26981303E-09
    8    5   -0.30380998E-03 -0.66424541E-10
    1    6   -0.11330843E-02 -0.49109258E-09
    2    6    0.15810170E-02  0.16515154E-09
    3    6    0.36452986E-02 -0.24518128E-09
    4    6    0.45173235E-02 -0.26214415E-09
    5    6    0.27646152E-03  0.43934344E-11
    6    6   -0.18616135E-02  0.59123081E-10
    7    6    0.92503085E-03 -0.17870423E-09
    8    6    0.16508288E-02 -0.25340780E-10
    1    7    0.13324932E-02 -0.19266098E-09
    2    7   -0.95474618E-03  0.29756069E-09
    3    7   -0.80936237E-02  0.98676035E-09
    4    7   -0.37638492E-02  0.14938027E-08
    5    7   -0.93135123E-03  0.25942257E-09
    6    7    0.90406461E-03 -0.10407549E-09
    7    7    0.13717295E-02  0.32199034E-09
    8    7    0.95139004E-03  0.49829632E-09
    1    8   -0.91536587E-04 -0.10324337E-09
    2    8   -0.89303919E-03  0.13791302E-08
    3    8   -0.47775996E-02 -0.11066656E-08
    4    8   -0.80904228E-02 -0.14864661E-08
    5    8    0.27599237E-03 -0.30429745E-09
    6    8    0.16247413E-02 -0.26420184E-10
    7    8    0.86184847E-03  0.32264411E-09
    8    8   -0.18682363E-02 -0.11719057E-09

   -3    1    0
    1    1    0.11574542E-02 -0.68842211E-09
    2    1   -0.68383204E-03 -0.10824313E-08
    3    1    0.69309517E-02  0.11698928E-08
    4    1    0.26324912E-04 -0.11603534E-08
    5    1   -0.59512128E-03  0.18578903E-09
    6    1    0.56706590E-03  0.31420836E-09
    7    1   -0.18946157E-03 -0.52399608E-10
    8    1   -0.67676771E-04 -0.44710396E-09
    1    2   -0.37565504E-02  0.13117029E-08
    2    2   -0.93838247E-02 -0.61475686E-10
    3    2    0.30991572E-02  0.71181622E-09
    4    2    0.14306227E-02  0.14236618E-08
    5    2    0.11199747E-02  0.26069844E-09
    6    2    0.52415635E-03  0.25457304E-09
    7    2    0.11010719E-03  0.28305630E-11
    8    2   -0.30013894E-04 -0.65083610E-09
    1    3    0.54043601E-02 -0.18836764E-09
    2    3    0.33113065E-02  0.14842424E-09
    3    3   -0.78865994E-02 -0.20153837E-08
    4    3    0.36142677E-02 -0.17102929E-08
    5    3    0.11496185E-02  0.81583313E-09
    6    3   -0.17794140E-03  0.17688377E-09
    7    3    0.65060292E-03  0.58093774E-09
    8    3    0.28355871E-03 -0.47432008E-10
    1    4   -0.31871443E-02  0.30832684E-08
    2    4    0.36875350E-02  0.14470042E-08
    3    4   -0.28953811E-03 -0.45595581E-09
    4    4   -0.18436678E-02  0.22839485E-08
    5    4   -0.10661761E-02  0.16049643E-08
    6    4    0.10319600E-03 -0.15738734E-09
    7    4    0.13370640E-03  0.35487417E-09
    8    4    0.67275381E-03 -0.49388687E-09
    1    5   -0.49110335E-02  0.29198829E-10
    2    5    0.25669541E-02 -0.60764836E-09
    3    5    0.28041618E-02 -0.39056041E-11
    4    5    0.46532148E-03 -0.23459313E-08
    5    5    0.73863286E-03 -0.53686555E-10
    6    5    0.31450498E-03 -0.29929618E-11
    7    5    0.29796851E-03  0.25456827E-09
    8    5    0.83530633E-03 -0.14404039E-10
    1    6    0.68110030E-02 -0.30877804E-09
    2    6    0.82978324E-02  0.24561969E-09
    3    6   -0.22683693E-03  0.22785840E-09
    4    6   -0.12387089E-02 -0.37639076E-09
    5    6   -0.19790170E-03 -0.11429931E-09
    6    6   -0.18157534E-02  0.71030660E-10
    7    6    0.16739871E-02 -0.18525338E-09
    8    6   -0.10144042E-02 -0.12733704E-09
    1    7    0.36223802E-02 -0.52680950E-11
    2    7   -0.36904583E-02 -0.35711032E-09
    3    7    0.76529208E-02  0.43072806E-09
    4    7   -0.79212906E-03 -0.30690256E-09
    5    7   -0.27899783E-03  0.60547441E-10
    6    7    0.15468666E-02 -0.14215673E-09
    7    7   -0.18064103E-02  0.15932251E-09
    8    7   -0.76947963E-03  0.67188614E-10
    1    8   -0.59096641E-04 -0.20265662E-09
    2    8    0.95897310E-05  0.24927310E-09
    3    8    0.81027494E-04 -0.28635235E-09
    4    8   -0.29609040E-03 -0.27932373E-09
    5    8   -0.86742088E-03 -0.47596822E-10
    6    8   -0.83530835E-03 -0.30755682E-09
    7    8   -0.97430187E-03  0.67209298E-10
    8    8    0.13889134E-02  0.20755035E-10

   -3    1    1
    1    1    0.99827441E-02 -0.28215708E-10
    2    1   -0.87847521E-02 -0.49895815E-09
    3    1    0.11278721E-01  0.21822910E-09
    4    1    0.60487798E-02 -0.24159416E-08
    5    1    0.36800250E-03  0.21144100E-10
    6    1   -0.69057963E-04 -0.17311425E-09
    7    1   -0.29740663E-03 -0.27927669E-09
    8    1    0.64894476E-04 -0.95328706E-10
    1    2    0.66735440E-02  0.42115419E-09
    2    2    0.10744801E-02 -0.11425469E-08
    3    2    0.35384390E-02  0.44959018E-09
    4    2    0.32521529E-04  0.11990342E-08
    5    2    0.64816442E-03 -0.24247151E-09
    6    2    0.49193803E-03  0.12200717E-09
    7    2    0.39127638E-04  0.28311387E-09
    8    2   -0.29841778E-04  0.25437978E-09
    1    3   -0.45059632E-02  0.12425058E-08
    2    3   -0.40905839E-03  0.37575174E-09
    3    3    0.22193392E-02 -0.26394746E-08
    4    3    0.14230035E-02 -0.19533211E-08
    5    3   -0.72570443E-03  0.79311999E-09
    6    3   -0.11064619E-03  0.56258923E-09
    7    3    0.44242095E-03 -0.59459347E-10
    8    3   -0.47276962E-04  0.59728428E-09
    1    4   -0.89784159E-02  0.48735261E-08
    2    4    0.40767678E-02  0.12038614E-08
    3    4   -0.63298214E-02  0.38811041E-09
    4    4    0.13618428E-02  0.44468577E-08
    5    4    0.65645958E-03  0.11829937E-08
    6    4    0.64218945E-04  0.11813287E-08
    7    4    0.41477839E-05 -0.10308778E-08
    8    4    0.49298058E-03 -0.18074084E-12
    1    5    0.17849484E-02 -0.44339103E-09
    2    5   -0.56604216E-02 -0.74075676E-09
    3    5    0.72271430E-02  0.36844198E-09
    4    5   -0.29661373E-02 -0.22451258E-08
    5    5   -0.10798338E-02 -0.81010754E-11
    6    5    0.17451629E-02 -0.15569279E-09
    7    5   -0.18221435E-02 -0.23328905E-09
    8    5   -0.17335596E-02  0.13047480E-09
    1    6   -0.33461271E-04  0.23940375E-09
    2    6   -0.64198592E-02  0.13637241E-09
    3    6    0.62048987E-02  0.30204013E-10
    4    6   -0.40008672E-02 -0.55534259E-10
    5    6   -0.16844764E-02  0.50595035E-10
    6    6    0.13665028E-02  0.38098344E-11
    7    6   -0.13417526E-02  0.44047207E-10
    8    6   -0.12744745E-02 -0.16493504E-09
    1    7    0.71813726E-03  0.14122828E-09
    2    7    0.62435854E-02  0.15545431E-09
    3    7   -0.58097899E-02  0.12308976E-08
    4    7    0.38042324E-02  0.22570566E-09
    5    7    0.16547384E-02 -0.17222930E-09
    6    7   -0.12558435E-02  0.24590914E-10
    7    7    0.13350720E-02 -0.47623565E-10
    8    7    0.11849897E-02 -0.29038281E-10
    1    8   -0.73098799E-02 -0.24254376E-09
    2    8    0.10679289E-01  0.14831790E-08
    3    8   -0.13060278E-01 -0.19902107E-08
    4    8    0.19947090E-03 -0.23905212E-08
    5    8    0.18050072E-02  0.55348664E-10
    6    8   -0.13914695E-02  0.44235242E-10
    7    8    0.14025912E-02  0.82674485E-10
    8    8    0.13925948E-02 -0.28552934E-09

   -3    1    2
    1    1    0.15029423E-02 -0.16795438E-09
    2    1   -0.15485011E-03  0.23257791E-08
    3    1    0.43728111E-02 -0.11862152E-08
    4    1   -0.25454968E-02 -0.45801942E-08
    5    1    0.13132549E-02  0.11801851E-09
    6    1    0.53309432E-03  0.31771137E-09
    7    1    0.32023209E-02 -0.25981847E-09
    8    1   -0.28518891E-02  0.13823043E-10
    1    2   -0.26214182E-02 -0.20146832E-08
    2    2   -0.92958543E-02 -0.95514906E-10
    3    2    0.19720207E-02 -0.16971869E-08
    4    2    0.40885938E-02  0.71036557E-09
    5    2    0.14368850E-02 -0.61507424E-09
    6    2    0.16140548E-02 -0.78563895E-09
    7    2    0.10654649E-02  0.41458122E-09
    8    2   -0.10974503E-02 -0.18290286E-08
    1    3    0.30240258E-03  0.23521432E-08
    2    3    0.21996330E-02 -0.52440061E-09
    3    3   -0.12176508E-02 -0.83581792E-09
    4    3    0.25947829E-02 -0.49519017E-09
    5    3   -0.19954302E-02  0.75107578E-09
    6    3   -0.44315906E-02  0.61232434E-09
    7    3   -0.75402439E-02 -0.12824161E-08
    8    3    0.33820736E-02  0.11255860E-08
    1    4   -0.43039171E-02  0.58755695E-08
    2    4    0.40768338E-02 -0.50933123E-09
    3    4    0.75197556E-03  0.22503857E-08
    4    4   -0.89082021E-02  0.13504673E-08
    5    4    0.21232573E-02  0.14158746E-08
    6    4    0.44533597E-02  0.10973577E-08
    7    4    0.36951995E-02 -0.23577379E-08
    8    4   -0.79265604E-02  0.24865749E-08
    1    5    0.48165195E-02 -0.13926351E-09
    2    5   -0.55345462E-02 -0.36764865E-09
    3    5   -0.45389759E-03  0.63006599E-09
    4    5    0.36539635E-02 -0.13014852E-08
    5    5    0.76641245E-03 -0.62554815E-10
    6    5    0.21291478E-03 -0.30916527E-09
    7    5    0.89020339E-03 -0.75032020E-10
    8    5    0.24140531E-03  0.22714766E-09
    1    6    0.30869329E-02  0.42845304E-09
    2    6   -0.61790314E-02 -0.64213072E-09
    3    6   -0.28154850E-02  0.14101982E-08
    4    6    0.57109379E-02  0.11565826E-08
    5    6   -0.32595370E-03  0.17198165E-09
    6    6   -0.18396215E-02 -0.21527937E-09
    7    6   -0.91383653E-03  0.50265948E-10
    8    6    0.16365343E-02 -0.35959204E-11
    1    7   -0.10933612E-01  0.13098894E-09
    2    7    0.93409571E-02  0.75196699E-09
    3    7   -0.45564998E-02  0.46708581E-10
    4    7   -0.70057952E-02 -0.11511535E-08
    5    7   -0.85167558E-03  0.84724494E-10
    6    7   -0.96261286E-03  0.20580073E-09
    7    7    0.13750239E-02 -0.16629239E-09
    8    7   -0.89569756E-03 -0.21484274E-09
    1    8   -0.38175917E-02 -0.17455170E-09
    2    8    0.66445231E-02  0.20751207E-08
    3    8    0.23755051E-02 -0.13819240E-08
    4    8   -0.61549600E-02 -0.87141455E-09
    5    8   -0.32572535E-03 -0.29863163E-09
    6    8    0.16708157E-02  0.28800197E-10
    7    8   -0.94969655E-03 -0.35061302E-09
    8    8   -0.18343047E-02  0.22740669E-09

   -3    2   -1
    1    1    0.26420016E-02 -0.69149601E-09
    2    1    0.47130659E-02  0.25229720E-10
    3    1    0.23745237E-03 -0.20010868E-11
    4    1   -0.18526072E-02 -0.10485575E-08
    5    1   -0.11387109E-02 -0.55687711E-09
    6    1    0.76794162E-03  0.21297134E-09
    7    1    0.20900405E-02 -0.70729524E-09
    8    1    0.16520765E-02 -0.24768923E-09
    1    2   -0.12330157E-02 -0.70317761E-10
    2    2    0.14405163E-01 -0.40094025E-10
    3    2   -0.32335120E-02  0.11178629E-08
    4    2    0.31278995E-02  0.64999460E-09
    5    2    0.26649746E-02 -0.18625970E-09
    6    2   -0.81956125E-02  0.12611101E-08
    7    2   -0.37318621E-02 -0.13420822E-08
    8    2   -0.47637526E-02 -0.68871003E-09
    1    3   -0.51084057E-02  0.12581721E-08
    2    3   -0.17258915E-02  0.14978178E-08
    3    3    0.14017471E-01 -0.15069605E-08
    4    3    0.26637898E-02 -0.11402236E-09
    5    3    0.29546972E-02  0.14856422E-08
    6    3   -0.44223553E-02 -0.10940438E-08
    7    3   -0.79874939E-02  0.23739608E-08
    8    3   -0.39561955E-02 -0.17943858E-08
    1    4    0.37532423E-02  0.14141712E-08
    2    4    0.21332069E-02  0.34426842E-10
    3    4    0.33763404E-02  0.42134570E-09
    4    4    0.14407576E-01  0.15875730E-08
    5    4   -0.18110067E-02  0.15097411E-08
    6    4    0.77297795E-03 -0.21012477E-08
    7    4    0.73419481E-03  0.11121280E-08
    8    4    0.71105307E-03 -0.10823677E-08
    1    5   -0.43798138E-03  0.33739459E-09
    2    5    0.83311223E-03  0.83835737E-09
    3    5    0.72253950E-03 -0.11377577E-08
    4    5    0.24310425E-03 -0.81006726E-09
    5    5   -0.23545426E-03 -0.15215232E-10
    6    5   -0.96752817E-04 -0.97489851E-10
    7    5   -0.77271685E-04 -0.57180371E-10
    8    5    0.81619061E-04 -0.28874013E-10
    1    6    0.95916126E-03  0.39289960E-11
    2    6    0.26095050E-02  0.49369315E-09
    3    6   -0.24024095E-02 -0.16299936E-09
    4    6   -0.10173526E-03 -0.71095238E-09
    5    6    0.15717859E-03 -0.48368262E-10
    6    6   -0.95468410E-03  0.35151087E-09
    7    6   -0.35963583E-03 -0.26424740E-09
    8    6    0.35289137E-03 -0.32994253E-09
    1    7   -0.99220602E-03  0.60276353E-10
    2    7   -0.27453923E-02  0.25141070E-09
    3    7    0.19038243E-02 -0.33184022E-09
    4    7    0.12228109E-03 -0.54353449E-09
    5    7    0.12186838E-03  0.15394450E-09
    6    7   -0.39589542E-03 -0.12249329E-09
    7    7   -0.97805701E-03  0.45179992E-10
    8    7    0.38939930E-03 -0.61521445E-11
    1    8   -0.67671129E-03  0.20401530E-09
    2    8    0.61807521E-04  0.14454569E-09
    3    8    0.58100034E-04  0.19026090E-09
    4    8   -0.52909511E-02  0.69391361E-10
    5    8   -0.12841067E-03  0.38866537E-12
    6    8    0.37016694E-03 -0.34484533E-09
    7    8    0.37912984E-03  0.75516842E-10
    8    8   -0.98639233E-03 -0.50420440E-10

   -3    2    0
    1    1    0.19351923E-02 -0.40863935E-09
    2    1   -0.78829160E-03 -0.57890757E-09
    3    1    0.59217174E-02 -0.95468040E-09
    4    1   -0.26744289E-02 -0.23458772E-08
    5    1    0.28893913E-02 -0.34102608E-09
    6    1   -0.95596962E-02  0.69398810E-09
    7    1   -0.44062450E-03 -0.13832626E-09
    8    1   -0.17038959E-02 -0.35601305E-09
    1    2    0.27463181E-02  0.29077209E-09
    2    2   -0.22645283E-02 -0.80447320E-09
    3    2   -0.11899827E-02  0.17657724E-08
    4    2    0.21246132E-02  0.19719959E-08
    5    2   -0.25913171E-02  0.44332694E-09
    6    2   -0.54252086E-03  0.15029902E-08
    7    2    0.37969064E-02 -0.42631532E-09
    8    2    0.39657614E-02 -0.46163711E-09
    1    3    0.33492604E-02  0.26629551E-08
    2    3   -0.39244590E-02  0.17618761E-08
    3    3   -0.83476922E-02 -0.28682449E-08
    4    3   -0.48533127E-02 -0.12145235E-08
    5    3    0.70486326E-02  0.10401992E-08
    6    3   -0.12298294E-01  0.69203039E-09
    7    3   -0.55946027E-02  0.14081548E-08
    8    3   -0.67380888E-02  0.35515189E-09
    1    4   -0.43350346E-03  0.35772668E-08
    2    4    0.26030476E-02  0.17032871E-08
    3    4   -0.45877000E-02  0.98358218E-09
    4    4   -0.93538098E-02  0.41794484E-08
    5    4    0.38301559E-02  0.11676064E-08
    6    4   -0.75781681E-02  0.64431388E-09
    7    4   -0.60666654E-02  0.20937434E-08
    8    4   -0.63489471E-02 -0.23998624E-09
    1    5    0.86330277E-03  0.14805394E-09
    2    5   -0.24696422E-02 -0.54617129E-09
    3    5   -0.14487534E-02 -0.10458085E-08
    4    5    0.19095015E-02 -0.22998090E-08
    5    5    0.75500793E-03 -0.35183820E-10
    6    5   -0.84974391E-03 -0.15592179E-11
    7    5    0.34609318E-03  0.25178933E-10
    8    5   -0.36835678E-03  0.28626654E-10
    1    6    0.71401615E-03 -0.21219355E-09
    2    6   -0.83196717E-02  0.44608130E-09
    3    6   -0.10151379E-02 -0.78133487E-09
    4    6    0.37470558E-02 -0.17800196E-08
    5    6    0.96744260E-03  0.41793491E-10
    6    6    0.14301856E-02  0.15287055E-09
    7    6    0.95059461E-03 -0.22277109E-09
    8    6   -0.91086719E-03 -0.15830316E-09
    1    7    0.56685971E-03  0.16379086E-11
    2    7    0.38668708E-02 -0.37951076E-09
    3    7    0.24507482E-02  0.42292872E-09
    4    7   -0.42336913E-02  0.67955439E-09
    5    7   -0.24123311E-03  0.33809277E-09
    6    7    0.81866855E-03 -0.25223124E-09
    7    7   -0.18059714E-02  0.16657393E-09
    8    7   -0.16364609E-02  0.81172863E-10
    1    8   -0.13341793E-02 -0.22799639E-09
    2    8    0.43857073E-02  0.42800020E-09
    3    8    0.80636667E-03 -0.10905009E-08
    4    8   -0.79592660E-02 -0.23210292E-08
    5    8    0.22866441E-03  0.60669254E-10
    6    8   -0.92246527E-03 -0.18052779E-09
    7    8   -0.16704796E-02  0.21978698E-09
    8    8   -0.17996391E-02 -0.24606512E-09

   -3    2    1
    1    1    0.14041986E-02  0.18733387E-09
    2    1   -0.34653801E-02  0.62671341E-09
    3    1    0.38500812E-02 -0.29873463E-08
    4    1   -0.71779077E-03 -0.48309793E-08
    5    1    0.11660789E-02 -0.23853901E-09
    6    1   -0.18433851E-02  0.62854853E-10
    7    1    0.21746567E-03 -0.54578078E-09
    8    1   -0.20625940E-02 -0.47165154E-11
    1    2   -0.15784502E-03 -0.76208581E-09
    2    2   -0.20153550E-02 -0.55448732E-09
    3    2    0.33224382E-02 -0.10907879E-08
    4    2   -0.23693653E-02 -0.43485145E-10
    5    2    0.20631329E-02 -0.75677659E-12
    6    2   -0.81322802E-02 -0.44430431E-09
    7    2   -0.41254493E-02  0.53422646E-09
    8    2   -0.39670280E-02 -0.10615083E-08
    1    3    0.59596826E-02  0.34221301E-08
    2    3    0.63840656E-03 -0.92076767E-09
    3    3   -0.82163504E-02 -0.48615579E-09
    4    3   -0.46075707E-02 -0.16257293E-08
    5    3   -0.13761033E-02  0.14338040E-08
    6    3    0.93019476E-03  0.43481298E-09
    7    3    0.24769503E-02 -0.13976444E-08
    8    3    0.83972712E-03  0.15901571E-08
    1    4   -0.30145690E-02  0.62607239E-08
    2    4   -0.18127264E-02 -0.77890708E-09
    3    4   -0.47818033E-02  0.15287014E-08
    4    4   -0.92329068E-02  0.15921751E-08
    5    4    0.18708826E-02  0.16216830E-08
    6    4   -0.37210790E-02  0.28874923E-08
    7    4   -0.42145447E-02 -0.19272919E-08
    8    4   -0.79177755E-02  0.26724886E-08
    1    5    0.32345967E-02  0.27417786E-09
    2    5    0.18976027E-02 -0.85581071E-09
    3    5    0.70920638E-02  0.33987441E-10
    4    5    0.37149603E-02 -0.12603900E-08
    5    5    0.75528086E-03  0.48282434E-10
    6    5   -0.95359404E-03 -0.80047509E-10
    7    5   -0.22894808E-03 -0.25727730E-09
    8    5    0.20571988E-03  0.10563686E-09
    1    6    0.94493009E-02 -0.65404546E-10
    2    6   -0.19812190E-02 -0.79092396E-09
    3    6    0.12164638E-01  0.10516080E-08
    4    6    0.75452110E-02  0.51964859E-09
    5    6    0.84233501E-03 -0.91766455E-10
    6    6    0.14319582E-02 -0.34517858E-09
    7    6   -0.83382437E-03  0.56403109E-10
    8    6    0.93749487E-03  0.31616095E-09
    1    7   -0.89298327E-03  0.42080529E-09
    2    7   -0.36594482E-02  0.11165273E-08
    3    7   -0.57144043E-02 -0.92891837E-09
    4    7   -0.60003937E-02 -0.18009863E-08
    5    7    0.34903810E-03  0.36573509E-11
    6    7   -0.95269692E-03  0.19434886E-09
    7    7   -0.17900506E-02 -0.38746632E-09
    8    7   -0.16811632E-02 -0.20280366E-09
    1    8   -0.21753057E-02 -0.38018268E-10
    2    8   -0.34651707E-02  0.79084346E-09
    3    8   -0.68969003E-02 -0.12018982E-08
    4    8   -0.62846071E-02 -0.85465166E-09
    5    8   -0.36196888E-03 -0.20121400E-09
    6    8    0.91832024E-03  0.16210403E-09
    7    8   -0.16413198E-02 -0.17189988E-10
    8    8   -0.17880295E-02  0.94336097E-10

   -3    2    2
    1    1    0.24631536E-02 -0.40788045E-09
    2    1    0.25505669E-02  0.16581358E-08
    3    1   -0.48693397E-02 -0.20850757E-08
    4    1    0.35035666E-02 -0.27856114E-08
    5    1   -0.42780480E-03 -0.22963006E-09
    6    1   -0.59420418E-03 -0.27426375E-10
    7    1   -0.62575460E-03 -0.12191671E-09
    8    1   -0.68030198E-03 -0.12251700E-09
    1    2   -0.34403239E-02 -0.10210992E-08
    2    2    0.14519910E-01  0.49706073E-09
    3    2    0.22996165E-02 -0.18438419E-08
    4    2   -0.26106342E-02 -0.31494705E-09
    5    2   -0.91549120E-03 -0.64241349E-09
    6    2    0.24056444E-02  0.13083418E-09
    7    2    0.29382451E-02 -0.11627541E-09
    8    2   -0.48531557E-04 -0.52032756E-09
    1    3    0.60127007E-03  0.21362597E-08
    2    3    0.33133285E-02 -0.97679141E-09
    3    3    0.14057667E-01  0.55442188E-09
    4    3    0.33393627E-02 -0.48724741E-09
    5    3    0.77344155E-03  0.13513408E-08
    6    3    0.26331250E-02  0.28148730E-09
    7    3    0.18885464E-02 -0.42824128E-09
    8    3    0.51318517E-04  0.13305260E-08
    1    4   -0.22959686E-02  0.38066881E-08
    2    4   -0.30000882E-02 -0.78050520E-09
    3    4    0.26706487E-02  0.19088528E-08
    4    4    0.14430905E-01 -0.95443334E-09
    5    4    0.22144021E-03  0.13301901E-08
    6    4    0.30248670E-04  0.12098664E-08
    7    4    0.10476510E-03 -0.15959571E-08
    8    4   -0.52846923E-02  0.23887545E-08
    1    5   -0.15876339E-02 -0.88907643E-10
    2    5   -0.26778973E-02  0.68724224E-09
    3    5    0.28810956E-02 -0.86568302E-09
    4    5   -0.18782170E-02 -0.18942124E-08
    5    5   -0.23195571E-03  0.18083007E-10
    6    5   -0.15484855E-03 -0.14441272E-09
    7    5    0.12828071E-03  0.69106725E-10
    8    5   -0.14164141E-03  0.11368728E-10
    1    6   -0.18579552E-02 -0.11667814E-09
    2    6   -0.81311609E-02 -0.19854784E-08
    3    6    0.41914550E-02  0.17536620E-08
    4    6   -0.63749265E-03  0.25324938E-08
    5    6    0.80600720E-04 -0.91216050E-10
    6    6   -0.96644513E-03 -0.40984912E-10
    7    6    0.39899670E-03  0.18056320E-09
    8    6   -0.37619387E-03 -0.65887210E-10
    1    7    0.26519543E-02  0.59482522E-09
    2    7    0.38240713E-02  0.14055108E-08
    3    7   -0.78727404E-02 -0.23223584E-08
    4    7    0.63514688E-03 -0.35451166E-08
    5    7   -0.65508199E-04  0.65771769E-10
    6    7    0.38164899E-03  0.58834032E-10
    7    7   -0.97805799E-03 -0.30454997E-09
    8    7    0.39146664E-03 -0.35515818E-09
    1    8    0.22276560E-02  0.50973983E-09
    2    8    0.45345529E-02 -0.18625631E-09
    3    8   -0.39397667E-02  0.13870765E-08
    4    8    0.75432410E-03  0.21655679E-08
    5    8    0.73846653E-04 -0.15184727E-10
    6    8   -0.37073336E-03  0.14023466E-09
    7    8    0.40133020E-03 -0.56044212E-10
    8    8   -0.97755344E-03  0.52449342E-09

   -2   -2    1
    1    1    0.26420016E-02  0.69149508E-09
    2    1   -0.12330157E-02  0.70317831E-10
    3    1   -0.51084057E-02 -0.12581721E-08
    4    1    0.37532423E-02 -0.14141713E-08
    5    1   -0.43798138E-03 -0.33739460E-09
    6    1    0.95916126E-03 -0.39288017E-11
    7    1   -0.99220602E-03 -0.60276409E-10
    8    1   -0.67671129E-03 -0.20401507E-09
    1    2    0.47130659E-02 -0.25229770E-10
    2    2    0.14405163E-01  0.40093276E-10
    3    2   -0.17258915E-02 -0.14978179E-08
    4    2    0.21332069E-02 -0.34426814E-10
    5    2    0.83311223E-03 -0.83835754E-09
    6    2    0.26095050E-02 -0.49369328E-09
    7    2   -0.27453923E-02 -0.25141069E-09
    8    2    0.61807521E-04 -0.14454571E-09
    1    3    0.23745237E-03  0.20011180E-11
    2    3   -0.32335120E-02 -0.11178629E-08
    3    3    0.14017471E-01  0.15069598E-08
    4    3    0.33763404E-02 -0.42134579E-09
    5    3    0.72253950E-03  0.11377578E-08
    6    3   -0.24024095E-02  0.16299943E-09
    7    3    0.19038243E-02  0.33184022E-09
    8    3    0.58100034E-04 -0.19026084E-09
    1    4   -0.18526072E-02  0.10485578E-08
    2    4    0.31278995E-02 -0.64999463E-09
    3    4    0.26637898E-02  0.11402237E-09
    4    4    0.14407576E-01 -0.15875736E-08
    5    4    0.24310425E-03  0.81006706E-09
    6    4   -0.10173526E-03  0.71095236E-09
    7    4    0.12228109E-03  0.54353450E-09
    8    4   -0.52909511E-02 -0.69391385E-10
    1    5   -0.11387109E-02  0.55687698E-09
    2    5    0.26649746E-02  0.18625984E-09
    3    5    0.29546972E-02 -0.14856422E-08
    4    5   -0.18110067E-02 -0.15097410E-08
    5    5   -0.23545426E-03  0.15216481E-10
    6    5    0.15717859E-03  0.48368248E-10
    7    5    0.12186838E-03 -0.15394449E-09
    8    5   -0.12841067E-03 -0.38863056E-12
    1    6    0.76794162E-03 -0.21297148E-09
    2    6   -0.81956125E-02 -0.12611096E-08
    3    6   -0.44223553E-02  0.10940437E-08
    4    6    0.77297795E-03  0.21012478E-08
    5    6   -0.96752817E-04  0.97489864E-10
    6    6   -0.95468410E-03 -0.35151100E-09
    7    6   -0.39589542E-03  0.12249329E-09
    8    6    0.37016694E-03  0.34484533E-09
    1    7    0.20900405E-02  0.70729521E-09
    2    7   -0.37318621E-02  0.13420822E-08
    3    7   -0.79874939E-02 -0.23739607E-08
    4    7    0.73419481E-03 -0.11121280E-08
    5    7   -0.77271685E-04  0.57180365E-10
    6    7   -0.35963583E-03  0.26424741E-09
    7    7   -0.97805701E-03 -0.45180039E-10
    8    7    0.37912984E-03 -0.75516830E-10
    1    8    0.16520765E-02  0.24768921E-09
    2    8   -0.47637526E-02  0.68871004E-09
    3    8   -0.39561955E-02  0.17943858E-08
    4    8    0.71105307E-03  0.10823672E-08
    5    8    0.81619061E-04  0.28873977E-10
    6    8    0.35289137E-03  0.32994253E-09
    7    8    0.38939930E-03  0.61521559E-11
    8    8   -0.98639233E-03  0.50420335E-10

   -2   -2    2
    1    1    0.20716509E-01  0.22201131E-09
    2    1   -0.20967378E-01  0.41219880E-09
    3    1   -0.31958256E-02 -0.11838317E-08
    4    1    0.17473262E-02 -0.17922647E-08
    5    1   -0.55992750E-03 -0.33010402E-10
    6    1    0.86955513E-04  0.12380473E-09
    7    1    0.10869342E-02 -0.40746180E-09
    8    1    0.46325363E-03 -0.29210670E-09
    1    2    0.15659573E-01 -0.10127285E-08
    2    2   -0.16236713E-01 -0.46911125E-09
    3    2    0.50194515E-02  0.23679941E-09
    4    2   -0.27332975E-02  0.51845784E-09
    5    2    0.86896584E-03 -0.53841365E-09
    6    2    0.25661899E-02  0.74535209E-09
    7    2   -0.11369765E-03 -0.41408573E-09
    8    2   -0.25550944E-02  0.75658748E-09
    1    3   -0.37683542E-02  0.11594192E-08
    2    3   -0.56987797E-02  0.99614164E-10
    3    3    0.32069081E-01  0.16680599E-09
    4    3    0.55371237E-03 -0.97802054E-09
    5    3   -0.56227585E-03  0.72614242E-09
    6    3    0.77031081E-04 -0.79223052E-09
    7    3   -0.50027154E-02  0.11497429E-08
    8    3    0.18430143E-03 -0.81762425E-09
    1    4    0.20658438E-02  0.12789619E-08
    2    4    0.30924615E-02  0.22411031E-09
    3    4    0.55613989E-03 -0.65346643E-10
    4    4    0.32147751E-01  0.15581360E-09
    5    4    0.78790566E-03  0.12475509E-08
    6    4   -0.24996915E-02 -0.78100544E-09
    7    4   -0.13813010E-03  0.20634751E-08
    8    4    0.27026429E-02 -0.13251454E-08
    1    5   -0.53153292E-03  0.58255547E-09
    2    5   -0.87669805E-03  0.42054545E-09
    3    5   -0.49806542E-03 -0.11153917E-08
    4    5    0.75765240E-03 -0.12008704E-08
    5    5    0.24713009E-03 -0.23582525E-11
    6    5    0.25774818E-03  0.13020655E-09
    7    5   -0.10025713E-04 -0.21971417E-10
    8    5    0.87661373E-05  0.38336726E-10
    1    6    0.37875704E-03 -0.22477441E-09
    2    6    0.23097020E-02 -0.38937046E-09
    3    6    0.61505661E-04  0.12120177E-08
    4    6    0.25282844E-02  0.11610030E-08
    5    6   -0.31843193E-03 -0.72536662E-10
    6    6    0.25793510E-03 -0.17109893E-09
    7    6   -0.32477344E-04  0.36925653E-10
    8    6    0.20296430E-04  0.11034208E-09
    1    7    0.11061043E-02  0.81014375E-09
    2    7    0.99782423E-04 -0.32314530E-10
    3    7   -0.49791926E-02 -0.31489134E-09
    4    7   -0.13987159E-03  0.27987712E-09
    5    7   -0.13593583E-04  0.20627704E-10
    6    7    0.24958210E-04 -0.15451054E-09
    7    7    0.13214967E-02  0.96233785E-10
    8    7    0.10837224E-04  0.86542746E-10
    1    8    0.70955241E-03  0.11999178E-09
    2    8    0.25641587E-02  0.26593634E-09
    3    8    0.21692754E-03 -0.17748120E-09
    4    8    0.27031726E-02 -0.12440169E-08
    5    8    0.10898510E-04  0.29898887E-10
    6    8   -0.15957679E-04 -0.37647135E-10
    7    8    0.10873604E-04  0.19173992E-11
    8    8    0.13302606E-02 -0.20769720E-09

   -2   -2    3
    1    1    0.24631536E-02  0.40788069E-09
    2    1   -0.34403239E-02  0.10210992E-08
    3    1    0.60127007E-03 -0.21362597E-08
    4    1   -0.22959686E-02 -0.38066881E-08
    5    1   -0.15876339E-02  0.88907711E-10
    6    1   -0.18579552E-02  0.11667813E-09
    7    1    0.26519543E-02 -0.59482526E-09
    8    1    0.22276560E-02 -0.50973992E-09
    1    2    0.25505669E-02 -0.16581357E-08
    2    2    0.14519910E-01 -0.49706050E-09
    3    2    0.33133285E-02  0.97679140E-09
    4    2   -0.30000882E-02  0.78050510E-09
    5    2   -0.26778973E-02 -0.68724221E-09
    6    2   -0.81311609E-02  0.19854786E-08
    7    2    0.38240713E-02 -0.14055108E-08
    8    2    0.45345529E-02  0.18625628E-09
    1    3   -0.48693397E-02  0.20850758E-08
    2    3    0.22996165E-02  0.18438419E-08
    3    3    0.14057667E-01 -0.55442180E-09
    4    3    0.26706487E-02 -0.19088528E-08
    5    3    0.28810956E-02  0.86568315E-09
    6    3    0.41914550E-02 -0.17536620E-08
    7    3   -0.78727404E-02  0.23223581E-08
    8    3   -0.39397667E-02 -0.13870766E-08
    1    4    0.35035666E-02  0.27856114E-08
    2    4   -0.26106342E-02  0.31494696E-09
    3    4    0.33393627E-02  0.48724738E-09
    4    4    0.14430905E-01  0.95443349E-09
    5    4   -0.18782170E-02  0.18942125E-08
    6    4   -0.63749265E-03 -0.25324938E-08
    7    4    0.63514688E-03  0.35451166E-08
    8    4    0.75432410E-03 -0.21655678E-08
    1    5   -0.42780480E-03  0.22963021E-09
    2    5   -0.91549120E-03  0.64241365E-09
    3    5    0.77344155E-03 -0.13513408E-08
    4    5    0.22144021E-03 -0.13301900E-08
    5    5   -0.23195571E-03 -0.18083229E-10
    6    5    0.80600720E-04  0.91216062E-10
    7    5   -0.65508199E-04 -0.65771765E-10
    8    5    0.73846653E-04  0.15184736E-10
    1    6   -0.59420418E-03  0.27426150E-10
    2    6    0.24056444E-02 -0.13083435E-09
    3    6    0.26331250E-02 -0.28148735E-09
    4    6    0.30248670E-04 -0.12098663E-08
    5    6   -0.15484855E-03  0.14441271E-09
    6    6   -0.96644513E-03  0.40984919E-10
    7    6    0.38164899E-03 -0.58834021E-10
    8    6   -0.37073336E-03 -0.14023464E-09
    1    7   -0.62575460E-03  0.12191672E-09
    2    7    0.29382451E-02  0.11627542E-09
    3    7    0.18885464E-02  0.42824157E-09
    4    7    0.10476510E-03  0.15959571E-08
    5    7    0.12828071E-03 -0.69106736E-10
    6    7    0.39899670E-03 -0.18056318E-09
    7    7   -0.97805799E-03  0.30455001E-09
    8    7    0.40133020E-03  0.56044226E-10
    1    8   -0.68030198E-03  0.12251684E-09
    2    8   -0.48531557E-04  0.52032757E-09
    3    8    0.51318517E-04 -0.13305261E-08
    4    8   -0.52846923E-02 -0.23887546E-08
    5    8   -0.14164141E-03 -0.11368734E-10
    6    8   -0.37619387E-03  0.65887233E-10
    7    8    0.39146664E-03  0.35515820E-09
    8    8   -0.97755344E-03 -0.52449340E-09

   -2   -1    0
    1    1    0.11574542E-02  0.68842201E-09
    2    1   -0.37565504E-02 -0.13117029E-08
    3    1    0.54043601E-02  0.18836769E-09
    4    1   -0.31871443E-02 -0.30832684E-08
    5    1   -0.49110335E-02 -0.29198838E-10
    6    1    0.68110030E-02  0.30877814E-09
    7    1    0.36223802E-02  0.52681019E-11
    8    1   -0.59096641E-04  0.20265655E-09
    1    2   -0.68383204E-03  0.10824313E-08
    2    2   -0.93838247E-02  0.61475464E-10
    3    2    0.33113065E-02 -0.14842424E-09
    4    2    0.36875350E-02 -0.14470042E-08
    5    2    0.25669541E-02  0.60764829E-09
    6    2    0.82978324E-02 -0.24561976E-09
    7    2   -0.36904583E-02  0.35711032E-09
    8    2    0.95897310E-05 -0.24927309E-09
    1    3    0.69309517E-02 -0.11698928E-08
    2    3    0.30991572E-02 -0.71181623E-09
    3    3   -0.78865994E-02  0.20153836E-08
    4    3   -0.28953811E-03  0.45595586E-09
    5    3    0.28041618E-02  0.39055720E-11
    6    3   -0.22683693E-03 -0.22785837E-09
    7    3    0.76529208E-02 -0.43072797E-09
    8    3    0.81027494E-04  0.28635236E-09
    1    4    0.26324912E-04  0.11603535E-08
    2    4    0.14306227E-02 -0.14236618E-08
    3    4    0.36142677E-02  0.17102930E-08
    4    4   -0.18436678E-02 -0.22839482E-08
    5    4    0.46532148E-03  0.23459314E-08
    6    4   -0.12387089E-02  0.37639075E-09
    7    4   -0.79212906E-03  0.30690256E-09
    8    4   -0.29609040E-03  0.27932368E-09
    1    5   -0.59512128E-03 -0.18578912E-09
    2    5    0.11199747E-02 -0.26069841E-09
    3    5    0.11496185E-02 -0.81583330E-09
    4    5   -0.10661761E-02 -0.16049642E-08
    5    5    0.73863286E-03  0.53686694E-10
    6    5   -0.19790170E-03  0.11429931E-09
    7    5   -0.27899783E-03 -0.60547444E-10
    8    5   -0.86742088E-03  0.47596834E-10
    1    6    0.56706590E-03 -0.31420833E-09
    2    6    0.52415635E-03 -0.25457293E-09
    3    6   -0.17794140E-03 -0.17688378E-09
    4    6    0.10319600E-03  0.15738735E-09
    5    6    0.31450498E-03  0.29929629E-11
    6    6   -0.18157534E-02 -0.71030638E-10
    7    6    0.15468666E-02  0.14215672E-09
    8    6   -0.83530835E-03  0.30755681E-09
    1    7   -0.18946157E-03  0.52399717E-10
    2    7    0.11010719E-03 -0.28305787E-11
    3    7    0.65060292E-03 -0.58093747E-09
    4    7    0.13370640E-03 -0.35487420E-09
    5    7    0.29796851E-03 -0.25456826E-09
    6    7    0.16739871E-02  0.18525338E-09
    7    7   -0.18064103E-02 -0.15932255E-09
    8    7   -0.97430187E-03 -0.67209315E-10
    1    8   -0.67676771E-04  0.44710383E-09
    2    8   -0.30013894E-04  0.65083611E-09
    3    8    0.28355871E-03  0.47431972E-10
    4    8    0.67275381E-03  0.49388669E-09
    5    8    0.83530633E-03  0.14404027E-10
    6    8   -0.10144042E-02  0.12733703E-09
    7    8   -0.76947963E-03 -0.67188635E-10
    8    8    0.13889134E-02 -0.20755054E-10

   -2   -1    1
    1    1    0.11303922E-01  0.69141846E-09
    2    1   -0.26410466E-02 -0.10258667E-08
    3    1   -0.45622758E-01 -0.55382038E-09
    4    1   -0.27733833E-02 -0.25678020E-08
    5    1    0.17973067E-03 -0.39213761E-09
    6    1    0.40025042E-03  0.38844392E-09
    7    1    0.15612097E-02 -0.73564599E-10
    8    1    0.48450544E-04  0.15612613E-09
    1    2    0.26816714E-01  0.21599416E-09
    2    2    0.20120143E-01 -0.15018985E-08
    3    2   -0.33061963E-01  0.35227495E-09
    4    2   -0.35891935E-02  0.59261559E-09
    5    2   -0.16244346E-02 -0.46465127E-09
    6    2    0.10043070E-02 -0.45506086E-09
    7    2   -0.10513000E-02 -0.54123082E-09
    8    2   -0.98991098E-03  0.82657135E-10
    1    3   -0.90293480E-03  0.34492949E-09
    2    3   -0.46876653E-01  0.53026306E-09
    3    3    0.80416253E-01  0.47758515E-09
    4    3   -0.18349549E-02 -0.80958383E-09
    5    3   -0.24505628E-02 -0.34107250E-09
    6    3    0.46639915E-02  0.10040913E-09
    7    3   -0.78097765E-02  0.39965057E-09
    8    3   -0.35388229E-02 -0.45972185E-09
    1    4   -0.29308768E-02  0.15185284E-08
    2    4    0.17563543E-02  0.58415300E-09
    3    4    0.44233327E-02 -0.30010743E-11
    4    4   -0.71602731E-02  0.41611134E-09
    5    4   -0.28121074E-02  0.10941469E-08
    6    4    0.42141015E-02  0.13784918E-09
    7    4   -0.45321521E-02  0.22196416E-08
    8    4   -0.82804350E-02 -0.14920819E-08
    1    5   -0.11284840E-02 -0.10027135E-11
    2    5    0.18382308E-02 -0.65605969E-10
    3    5    0.29768157E-02 -0.70339453E-09
    4    5   -0.27031547E-02 -0.16335586E-08
    5    5   -0.27607587E-03  0.51164767E-10
    6    5    0.42620618E-03 -0.15629717E-09
    7    5   -0.12552911E-03 -0.15657240E-10
    8    5    0.20519444E-05  0.37389978E-10
    1    6   -0.22328770E-02  0.17550248E-10
    2    6    0.16707817E-02 -0.51745522E-09
    3    6    0.36917867E-02  0.25488343E-09
    4    6   -0.40766495E-02  0.50820183E-09
    5    6   -0.39262360E-03 -0.17450759E-09
    6    6    0.26203367E-02 -0.19217888E-10
    7    6    0.25762175E-02 -0.18451720E-09
    8    6    0.10097041E-04  0.51520634E-10
    1    7    0.27135390E-02  0.35081241E-09
    2    7   -0.84499655E-03  0.11269480E-08
    3    7   -0.78629888E-02 -0.62689971E-10
    4    7    0.40309950E-02  0.95745502E-09
    5    7    0.13828773E-03  0.29564960E-09
    6    7    0.25529095E-02  0.16299760E-09
    7    7    0.91218389E-03  0.20038337E-09
    8    7    0.34021622E-04  0.16700837E-09
    1    8   -0.23028840E-02  0.23532611E-09
    2    8    0.82836660E-03  0.53329241E-09
    3    8    0.42626304E-02 -0.17334908E-10
    4    8   -0.80834465E-02 -0.16950307E-08
    5    8   -0.18216036E-04 -0.11482686E-09
    6    8   -0.45874023E-04  0.20078178E-09
    7    8   -0.17255472E-04 -0.83911368E-10
    8    8   -0.12696953E-02 -0.39780250E-09

   -2   -1    2
    1    1    0.41198230E-02  0.37127854E-09
    2    1   -0.21686191E-01  0.69710446E-10
    3    1    0.47662242E-02 -0.85001956E-09
    4    1   -0.13737365E-01 -0.38407513E-08
    5    1   -0.40359875E-02  0.40869715E-09
    6    1    0.58346331E-02  0.13970574E-09
    7    1    0.17764582E-03 -0.42411549E-09
    8    1    0.64303052E-02 -0.47354533E-09
    1    2    0.10013218E-01 -0.17332721E-08
    2    2    0.21301611E-01 -0.19009612E-08
    3    2    0.38675475E-02  0.16307711E-08
    4    2   -0.43054845E-01  0.29378119E-09
    5    2    0.28451760E-02 -0.79796296E-09
    6    2    0.81339739E-02  0.87865422E-09
    7    2   -0.45229733E-04 -0.56817919E-10
    8    2   -0.33398215E-02  0.85005025E-09
    1    3    0.35936591E-02  0.51784808E-09
    2    3   -0.60323721E-02  0.13583982E-08
    3    3   -0.59374330E-02  0.56480723E-11
    4    3   -0.51473540E-02 -0.24908287E-08
    5    3   -0.98066384E-03 -0.44167755E-09
    6    3    0.18071788E-02 -0.70638103E-09
    7    3   -0.41326673E-03  0.58331404E-09
    8    3    0.19845344E-02  0.31838928E-09
    1    4    0.32067915E-01  0.39281655E-08
    2    4   -0.41100427E-01 -0.25128432E-09
    3    4    0.67772035E-02 -0.71212474E-09
    4    4    0.85243445E-01  0.18615183E-08
    5    4    0.26097255E-02  0.17735937E-08
    6    4   -0.36911634E-02 -0.69771703E-09
    7    4   -0.18409142E-04  0.19378702E-08
    8    4    0.80348716E-02 -0.17924869E-08
    1    5    0.37948373E-02 -0.62310106E-10
    2    5   -0.37282560E-02  0.81594507E-09
    3    5    0.15046304E-02 -0.11969106E-08
    4    5   -0.81389178E-03 -0.19780235E-08
    5    5   -0.25039651E-03  0.37742351E-10
    6    5    0.33653897E-03 -0.20036786E-09
    7    5    0.23819376E-04  0.10824775E-09
    8    5   -0.11679556E-03 -0.14503103E-09
    1    6    0.38639973E-02 -0.10525674E-09
    2    6   -0.44748842E-02 -0.24712308E-09
    3    6    0.14127653E-02 -0.18923831E-10
    4    6   -0.80981825E-03 -0.42673205E-09
    5    6   -0.43585893E-03  0.13714495E-09
    6    6    0.25387741E-02  0.11269691E-09
    7    6   -0.60917860E-04 -0.44249001E-10
    8    6    0.26150209E-02  0.22175210E-09
    1    7   -0.62650336E-03  0.18451816E-09
    2    7    0.41304765E-03 -0.42805884E-09
    3    7    0.51762463E-03  0.92838114E-09
    4    7    0.98134196E-04  0.18244937E-08
    5    7   -0.27277149E-05 -0.23837997E-09
    6    7    0.32388946E-04 -0.34417524E-09
    7    7   -0.12578207E-02  0.15669218E-09
    8    7    0.46829300E-04  0.10546213E-09
    1    8    0.35253080E-03  0.27066445E-09
    2    8   -0.23289408E-03  0.17936258E-09
    3    8    0.10236624E-03 -0.14544348E-08
    4    8    0.46313617E-03 -0.33019428E-08
    5    8    0.36864248E-04  0.45396789E-10
    6    8    0.27341135E-02  0.15840783E-09
    7    8   -0.45668259E-04  0.16678708E-09
    8    8    0.90879144E-03 -0.59994738E-09

   -2   -1    3
    1    1    0.15029423E-02  0.16795404E-09
    2    1   -0.26214182E-02  0.20146832E-08
    3    1    0.30240258E-03 -0.23521433E-08
    4    1   -0.43039171E-02 -0.58755695E-08
    5    1    0.48165195E-02  0.13926355E-09
    6    1    0.30869329E-02 -0.42845311E-09
    7    1   -0.10933612E-01 -0.13098909E-09
    8    1   -0.38175917E-02  0.17455187E-09
    1    2   -0.15485011E-03 -0.23257791E-08
    2    2   -0.92958543E-02  0.95514430E-10
    3    2    0.21996330E-02  0.52440062E-09
    4    2    0.40768338E-02  0.50933123E-09
    5    2   -0.55345462E-02  0.36764872E-09
    6    2   -0.61790314E-02  0.64213032E-09
    7    2    0.93409571E-02 -0.75196700E-09
    8    2    0.66445231E-02 -0.20751207E-08
    1    3    0.43728111E-02  0.11862152E-08
    2    3    0.19720207E-02  0.16971870E-08
    3    3   -0.12176508E-02  0.83581817E-09
    4    3    0.75197556E-03 -0.22503858E-08
    5    3   -0.45389759E-03 -0.63006596E-09
    6    3   -0.28154850E-02 -0.14101982E-08
    7    3   -0.45564998E-02 -0.46708249E-10
    8    3    0.23755051E-02  0.13819240E-08
    1    4   -0.25454968E-02  0.45801942E-08
    2    4    0.40885938E-02 -0.71036556E-09
    3    4    0.25947829E-02  0.49519014E-09
    4    4   -0.89082021E-02 -0.13504675E-08
    5    4    0.36539635E-02  0.13014851E-08
    6    4    0.57109379E-02 -0.11565826E-08
    7    4   -0.70057952E-02  0.11511535E-08
    8    4   -0.61549600E-02  0.87141457E-09
    1    5    0.13132549E-02 -0.11801842E-09
    2    5    0.14368850E-02  0.61507419E-09
    3    5   -0.19954302E-02 -0.75107573E-09
    4    5    0.21232573E-02 -0.14158747E-08
    5    5    0.76641245E-03  0.62555045E-10
    6    5   -0.32595370E-03 -0.17198165E-09
    7    5   -0.85167558E-03 -0.84724491E-10
    8    5   -0.32572535E-03  0.29863163E-09
    1    6    0.53309432E-03 -0.31771127E-09
    2    6    0.16140548E-02  0.78563897E-09
    3    6   -0.44315906E-02 -0.61232432E-09
    4    6    0.44533597E-02 -0.10973577E-08
    5    6    0.21291478E-03  0.30916527E-09
    6    6   -0.18396215E-02  0.21527936E-09
    7    6   -0.96261286E-03 -0.20580075E-09
    8    6    0.16708157E-02 -0.28800188E-10
    1    7    0.32023209E-02  0.25981845E-09
    2    7    0.10654649E-02 -0.41458123E-09
    3    7   -0.75402439E-02  0.12824160E-08
    4    7    0.36951995E-02  0.23577379E-08
    5    7    0.89020339E-03  0.75032016E-10
    6    7   -0.91383653E-03 -0.50265953E-10
    7    7    0.13750239E-02  0.16629234E-09
    8    7   -0.94969655E-03  0.35061303E-09
    1    8   -0.28518891E-02 -0.13823009E-10
    2    8   -0.10974503E-02  0.18290286E-08
    3    8    0.33820736E-02 -0.11255860E-08
    4    8   -0.79265604E-02 -0.24865749E-08
    5    8    0.24140531E-03 -0.22714766E-09
    6    8    0.16365343E-02  0.35959231E-11
    7    8   -0.89569756E-03  0.21484275E-09
    8    8   -0.18343047E-02 -0.22740671E-09

   -2    0   -1
    1    1    0.16940494E-02  0.87283622E-09
    2    1   -0.22212057E-02 -0.82561504E-09
    3    1    0.70796003E-02  0.47110751E-09
    4    1   -0.20383222E-02 -0.25527300E-08
    5    1   -0.39888916E-02  0.32568675E-09
    6    1   -0.47865581E-02 -0.72098985E-10
    7    1   -0.71603537E-02 -0.17341080E-09
    8    1   -0.61790894E-04 -0.48041620E-09
    1    2   -0.38753782E-02  0.12444864E-08
    2    2   -0.94236564E-02  0.12854295E-08
    3    2    0.29661188E-02  0.26938128E-09
    4    2   -0.70219559E-03 -0.60110765E-09
    5    2   -0.31030517E-02  0.59043401E-09
    6    2    0.79520771E-02 -0.24737993E-09
    7    2   -0.24634313E-02 -0.47578485E-09
    8    2   -0.56840410E-04 -0.52418218E-09
    1    3    0.38232879E-02 -0.63467344E-09
    2    3    0.34425582E-02 -0.64238783E-09
    3    3   -0.81055483E-02  0.60604206E-09
    4    3   -0.50533017E-02  0.11934566E-09
    5    3   -0.22088632E-02  0.21874405E-09
    6    3   -0.39740860E-02  0.36824026E-09
    7    3    0.74381057E-02 -0.55163615E-09
    8    3    0.54214920E-05  0.83053872E-09
    1    4    0.14010386E-02  0.13094800E-08
    2    4   -0.33995555E-02 -0.73215690E-09
    3    4   -0.11875986E-02  0.97099926E-09
    4    4   -0.20906655E-02 -0.22005001E-08
    5    4    0.49132979E-03  0.23346197E-08
    6    4    0.80461619E-03 -0.71068548E-09
    7    4    0.12123657E-02  0.26373947E-09
    8    4   -0.34377193E-03 -0.61634035E-09
    1    5    0.35223093E-04  0.61435291E-10
    2    5   -0.88644247E-03  0.56621008E-09
    3    5   -0.10562201E-02  0.93056203E-10
    4    5   -0.93587854E-03 -0.15229115E-08
    5    5    0.73824541E-03 -0.12397638E-09
    6    5    0.34020790E-03 -0.10811693E-09
    7    5    0.26183640E-03  0.23070279E-09
    8    5   -0.83722690E-03 -0.89598536E-10
    1    6    0.18881259E-04 -0.35886313E-09
    2    6    0.58710108E-03 -0.30593516E-09
    3    6    0.47579307E-04 -0.20079573E-10
    4    6   -0.27192349E-03 -0.28013173E-09
    5    6   -0.25681769E-03  0.52928499E-10
    6    6   -0.18166469E-02  0.32959165E-11
    7    6    0.16569366E-02 -0.13842817E-09
    8    6    0.99712235E-03  0.13156039E-10
    1    7   -0.69219694E-03 -0.17525426E-09
    2    7   -0.14138659E-03 -0.13930038E-09
    3    7    0.34882890E-03 -0.51193721E-09
    4    7   -0.19249008E-03 -0.50703990E-09
    5    7   -0.27207060E-03 -0.13423981E-09
    6    7    0.15475080E-02 -0.17023642E-09
    7    7   -0.18344320E-02  0.10892822E-09
    8    7    0.76144016E-03 -0.16949774E-09
    1    8    0.16058221E-03  0.87916968E-09
    2    8   -0.13780533E-03 -0.42116570E-09
    3    8    0.14496919E-03 -0.10339504E-08
    4    8    0.56312793E-03  0.17936527E-09
    5    8    0.88802380E-03  0.12438160E-09
    6    8    0.81350587E-03 -0.14457949E-09
    7    8    0.97818372E-03 -0.29569996E-09
    8    8    0.13873995E-02 -0.32118764E-09

   -2    0    0
    1    1   -0.65445689E-01  0.10795974E-08
    2    1    0.11847011E+00 -0.91428809E-09
    3    1   -0.13040947E+00 -0.29488854E-09
    4    1    0.99302290E-02 -0.38907476E-08
    5    1    0.58020144E-02  0.39902600E-09
    6    1   -0.40417645E-02  0.27814574E-09
    7    1    0.46749587E-02 -0.28995057E-09
    8    1    0.12991978E-01  0.26470636E-09
    1    2   -0.13001330E-01  0.95672762E-09
    2    2    0.13206394E+00 -0.37700201E-09
    3    2   -0.14724607E+00  0.10719473E-08
    4    2    0.54632344E-02  0.19536788E-09
    5    2    0.43991428E-02  0.61982700E-09
    6    2   -0.59182706E-02 -0.22893329E-09
    7    2    0.62515274E-02 -0.75133272E-10
    8    2    0.71464851E-02  0.70540203E-09
    1    3    0.31188934E-02  0.33901663E-09
    2    3   -0.11971600E+00  0.80977846E-11
    3    3    0.11544360E+00  0.23094683E-09
    4    3   -0.37947749E-02 -0.73729366E-09
    5    3   -0.27131439E-02 -0.66005000E-09
    6    3    0.50608398E-02  0.41319548E-09
    7    3   -0.55557599E-02  0.13328972E-09
    8    3   -0.48367150E-02 -0.88088872E-09
    1    4    0.68323806E-02  0.31897876E-08
    2    4   -0.14450084E-01 -0.33621994E-09
    3    4    0.15997792E-01  0.15061498E-08
    4    4   -0.15663101E-01  0.47365803E-09
    5    4    0.13183890E-02  0.22053989E-08
    6    4   -0.32700321E-02 -0.71757867E-10
    7    4    0.29840534E-02  0.12200009E-08
    8    4   -0.31446953E-02 -0.29185166E-08
    1    5    0.24748923E-02 -0.20192148E-09
    2    5   -0.54620828E-02 -0.69877379E-09
    3    5    0.71743507E-02  0.29787141E-09
    4    5    0.13604709E-02 -0.20337074E-08
    5    5    0.37139424E-03  0.24223026E-10
    6    5   -0.26872917E-02 -0.17156499E-09
    7    5    0.27758482E-02 -0.31939963E-09
    8    5    0.79551538E-04  0.27337790E-09
    1    6    0.95429701E-03 -0.58386244E-10
    2    6   -0.64851911E-02  0.70348575E-09
    3    6    0.64023977E-02 -0.75673254E-09
    4    6    0.31997345E-02 -0.53274470E-09
    5    6    0.27528948E-02 -0.48854630E-11
    6    6   -0.39082496E-02 -0.13298646E-09
    7    6    0.46409880E-02  0.19793093E-09
    8    6    0.26176965E-04  0.20946375E-09
    1    7   -0.22455040E-03  0.13549417E-09
    2    7    0.62087592E-02  0.11699686E-09
    3    7   -0.60810306E-02  0.78212031E-09
    4    7   -0.34119234E-02  0.12342186E-08
    5    7   -0.27039227E-02  0.60016826E-10
    6    7    0.45468688E-02  0.36315937E-09
    7    7   -0.38928319E-02 -0.33176636E-09
    8    7   -0.16398234E-04  0.80139157E-10
    1    8    0.70896783E-02  0.41376183E-09
    2    8   -0.10334314E-01  0.51548899E-09
    3    8    0.12531183E-01 -0.67073977E-09
    4    8   -0.27693362E-02 -0.22658814E-08
    5    8    0.46297912E-04 -0.22573715E-10
    6    8   -0.29573456E-04  0.19870395E-09
    7    8    0.31472025E-04 -0.37889852E-10
    8    8   -0.56771835E-03 -0.65380320E-09

   -2    0    1
    1    1    0.16543675E-01  0.17763429E-08
    2    1   -0.32110190E-01 -0.33901696E-08
    3    1    0.47715468E-01  0.17501912E-08
    4    1    0.20520963E-01 -0.35163028E-08
    5    1    0.27892316E-02  0.71076115E-09
    6    1   -0.10693462E-02 -0.14111109E-09
    7    1    0.10112806E-01 -0.31774906E-09
    8    1    0.33471892E-03 -0.52672017E-11
    1    2    0.15405013E-01  0.14761524E-08
    2    2   -0.38775795E-02 -0.33659619E-08
    3    2    0.36282688E-01  0.10832584E-08
    4    2    0.26598883E-01  0.16756058E-08
    5    2    0.45961122E-02 -0.36803640E-09
    6    2   -0.63903185E-02 -0.49396058E-10
    7    2    0.85058843E-02 -0.10619025E-09
    8    2    0.61058806E-02  0.12696091E-08
    1    3   -0.91793381E-02 -0.83177726E-09
    2    3    0.26335628E-01  0.70504941E-09
    3    3   -0.30775908E-01 -0.20861396E-08
    4    3    0.12336275E-02 -0.35913394E-08
    5    3    0.33995755E-02 -0.30930425E-09
    6    3   -0.42371456E-02  0.75216726E-09
    7    3    0.16584863E-02 -0.43711648E-09
    8    3    0.38928478E-02 -0.20926460E-09
    1    4   -0.30553907E-01  0.42026822E-08
    2    4    0.42226382E-01  0.17838281E-08
    3    4   -0.27162570E-01 -0.19752196E-08
    4    4   -0.36354261E-01  0.42347492E-08
    5    4   -0.61617814E-02  0.13293128E-08
    6    4    0.63133498E-02  0.13126856E-08
    7    4   -0.11005611E-01  0.10151307E-09
    8    4   -0.58474286E-02 -0.16351718E-08
    1    5   -0.77811541E-02 -0.84007079E-10
    2    5    0.97383247E-02  0.17325329E-09
    3    5   -0.54898804E-02 -0.82629693E-09
    4    5   -0.56287897E-03 -0.39169029E-08
    5    5   -0.22190443E-02 -0.25426880E-11
    6    5    0.28767490E-02  0.13072045E-09
    7    5   -0.33033425E-02 -0.12349100E-09
    8    5   -0.31739030E-02 -0.62558051E-10
    1    6   -0.16800361E-01 -0.41848199E-10
    2    6    0.31764018E-01  0.65845048E-09
    3    6   -0.87401691E-02 -0.17168735E-08
    4    6    0.17060558E-02 -0.94899646E-09
    5    6   -0.29545058E-02 -0.49515946E-09
    6    6    0.74038893E-02 -0.29286564E-09
    7    6   -0.33847810E-02 -0.23482059E-09
    8    6   -0.36717608E-02 -0.73054433E-10
    1    7   -0.11112319E-01  0.38844128E-09
    2    7    0.33195081E-01  0.30924008E-09
    3    7   -0.28502127E-01  0.21025173E-08
    4    7    0.39061378E-02  0.17393699E-08
    5    7    0.29339271E-02  0.83923072E-10
    6    7   -0.32820933E-02  0.19453916E-09
    7    7    0.16997893E-02  0.35569458E-09
    8    7    0.11950438E-01 -0.11072797E-09
    1    8   -0.32079223E-02  0.13038779E-10
    2    8   -0.12463024E-03  0.12672267E-08
    3    8   -0.40126563E-03 -0.26287254E-08
    4    8   -0.21235953E-01 -0.55347078E-08
    5    8    0.32366532E-02 -0.58639799E-09
    6    8   -0.33111758E-02  0.45684216E-09
    7    8    0.12541899E-01 -0.66331241E-10
    8    8    0.17894942E-02 -0.73350743E-09

   -2    0    2
    1    1   -0.82233368E-01 -0.78861384E-09
    2    1    0.57106605E-01  0.29858623E-08
    3    1   -0.17266232E-01 -0.93578804E-09
    4    1   -0.44020505E-01 -0.66363896E-08
    5    1   -0.50276643E-02  0.39568563E-09
    6    1   -0.57613556E-02 -0.68146992E-10
    7    1    0.14751816E-03 -0.25106948E-10
    8    1   -0.49707671E-02 -0.27816268E-09
    1    2   -0.72877617E-01 -0.30728268E-08
    2    2    0.13621576E+00  0.73620426E-09
    3    2   -0.19072659E-01 -0.45601658E-09
    4    2   -0.12951582E+00  0.21430407E-09
    5    2   -0.28028673E-02 -0.22613789E-09
    6    2    0.82680084E-02 -0.14703979E-08
    7    2    0.40100355E-04  0.71162261E-09
    8    2   -0.26502047E-02 -0.65265912E-09
    1    3   -0.18622631E-01  0.85616373E-09
    2    3    0.17513853E-01 -0.86047933E-09
    3    3   -0.19157685E-01  0.21776016E-09
    4    3   -0.14122977E-01 -0.12624901E-08
    5    3   -0.92396182E-03  0.58745436E-09
    6    3   -0.19887176E-02  0.57670575E-09
    7    3   -0.33798209E-03 -0.10940942E-08
    8    3   -0.17900870E-02  0.83814913E-09
    1    4    0.86450580E-01  0.59988914E-08
    2    4   -0.15787823E+00 -0.10352320E-08
    3    4    0.22406848E-01  0.13248663E-08
    4    4    0.13190378E+00  0.37237305E-09
    5    4   -0.28700292E-02  0.19679409E-08
    6    4   -0.17675110E-02  0.14684169E-08
    7    4    0.71782732E-04 -0.20737326E-08
    8    4    0.80551749E-02  0.15960642E-08
    1    5   -0.82238054E-02 -0.23742952E-09
    2    5    0.85194551E-02  0.18436517E-09
    3    5    0.49659565E-03  0.16891750E-08
    4    5   -0.43466689E-02 -0.16470949E-08
    5    5    0.44302072E-03 -0.47081006E-10
    6    5   -0.28788509E-02 -0.24138811E-09
    7    5   -0.86079738E-04 -0.11705119E-09
    8    5    0.28227967E-02  0.26325974E-09
    1    6   -0.17966247E-01  0.17797309E-09
    2    6    0.31908463E-01  0.19951740E-09
    3    6   -0.42567320E-02  0.56969568E-09
    4    6    0.59340548E-03  0.16775710E-08
    5    6    0.28178933E-02  0.19666047E-09
    6    6   -0.41377635E-02 -0.30836695E-09
    7    6   -0.35949419E-04  0.19404848E-09
    8    6    0.45972851E-02  0.63629178E-10
    1    7    0.58690482E-02  0.35064141E-09
    2    7    0.16255761E-03 -0.87983641E-09
    3    7   -0.21192710E-01  0.69635005E-09
    4    7   -0.28016546E-03  0.12661089E-08
    5    7   -0.10022872E-03 -0.37708909E-09
    6    7    0.43182508E-04  0.21918125E-09
    7    7   -0.49854579E-03 -0.11454955E-09
    8    7   -0.29784992E-04  0.55307168E-10
    1    8   -0.22366207E-01 -0.56804531E-09
    2    8    0.36642813E-01  0.44520180E-08
    3    8   -0.88430442E-02 -0.37907478E-08
    4    8   -0.18879625E-01 -0.41006337E-08
    5    8   -0.28840764E-02 -0.34554761E-09
    6    8    0.47063025E-02  0.45933069E-09
    7    8    0.45698330E-04  0.54286849E-10
    8    8   -0.41338444E-02 -0.29554837E-09

   -2    0    3
    1    1    0.25826076E-02  0.32511611E-09
    2    1    0.11524201E-02  0.14025524E-08
    3    1   -0.11611647E-02 -0.41118953E-09
    4    1   -0.56228143E-03 -0.35034557E-08
    5    1   -0.23936609E-03  0.47222375E-09
    6    1   -0.11330843E-02  0.49109287E-09
    7    1    0.13324932E-02  0.19266136E-09
    8    1   -0.91536587E-04  0.10324338E-09
    1    2   -0.10254874E-02  0.45119707E-10
    2    2   -0.95378602E-02  0.24685912E-08
    3    2   -0.27176434E-02 -0.99838272E-09
    4    2    0.41794437E-02  0.22178878E-09
    5    2    0.16000756E-02 -0.33607559E-09
    6    2    0.15810170E-02 -0.16515083E-09
    7    2   -0.95474618E-03 -0.29756073E-09
    8    2   -0.89303919E-03 -0.13791302E-08
    1    3    0.34411304E-02  0.52231615E-10
    2    3   -0.23948982E-02 -0.87776422E-09
    3    3   -0.16816320E-02  0.14720196E-08
    4    3   -0.37594722E-02 -0.22426986E-09
    5    3    0.31103460E-02 -0.25945250E-09
    6    3    0.36452986E-02  0.24518134E-09
    7    3   -0.80936237E-02 -0.98676087E-09
    8    3   -0.47775996E-02  0.11066656E-08
    1    4   -0.34950972E-02  0.21622210E-08
    2    4    0.40414263E-02 -0.46943339E-09
    3    4   -0.22835036E-02  0.14183360E-08
    4    4   -0.92222862E-02 -0.39124070E-08
    5    4    0.23189021E-02  0.19238052E-08
    6    4    0.45173235E-02  0.26214410E-09
    7    4   -0.37638492E-02 -0.14938027E-08
    8    4   -0.80904228E-02  0.14864659E-08
    1    5    0.36151550E-02 -0.26399525E-10
    2    5   -0.54381426E-02  0.19087194E-09
    3    5    0.34182769E-02  0.36321811E-09
    4    5    0.39051900E-02 -0.85426119E-09
    5    5    0.76603659E-03 -0.90193908E-10
    6    5    0.27646152E-03 -0.43934268E-11
    7    5   -0.93135123E-03 -0.25942259E-09
    8    5    0.27599237E-03  0.30429746E-09
    1    6    0.12022899E-02  0.26293431E-09
    2    6   -0.59268717E-02 -0.30691585E-09
    3    6    0.39944051E-02  0.70236136E-09
    4    6    0.58220322E-02  0.19057352E-08
    5    6   -0.33118498E-03  0.18850441E-09
    6    6   -0.18616135E-02 -0.59123124E-10
    7    6    0.90406461E-03  0.10407546E-09
    8    6    0.16247413E-02  0.26420195E-10
    1    7    0.11577965E-01  0.13704873E-09
    2    7   -0.94653800E-02  0.30705802E-09
    3    7    0.18279234E-02 -0.24202480E-09
    4    7    0.70247000E-02 -0.94257231E-09
    5    7    0.85340213E-03  0.26981305E-09
    6    7    0.92503085E-03  0.17870421E-09
    7    7    0.13717295E-02 -0.32199035E-09
    8    7    0.86184847E-03 -0.32264413E-09
    1    8   -0.19755245E-02  0.21405772E-09
    2    8    0.62812147E-02  0.30749309E-09
    3    8   -0.42974086E-02 -0.13189373E-08
    4    8   -0.62586109E-02  0.55116933E-09
    5    8   -0.30380998E-03  0.66424533E-10
    6    8    0.16508288E-02  0.25340789E-10
    7    8    0.95139004E-03 -0.49829635E-09
    8    8   -0.18682363E-02  0.11719054E-09

   -2    1   -2
    1    1    0.28246412E-02  0.26537685E-09
    2    1    0.37100978E-02  0.86041667E-09
    3    1   -0.47118265E-03 -0.36838590E-09
    4    1    0.47061746E-02 -0.12177683E-08
    5    1   -0.49981992E-03  0.25505171E-11
    6    1    0.58920578E-03 -0.82747011E-10
    7    1   -0.95432152E-03 -0.12230190E-09
    8    1   -0.60747773E-03 -0.17619053E-09
    1    2   -0.18601286E-02  0.56184970E-09
    2    2    0.14475660E-01  0.17688912E-08
    3    2   -0.33459674E-02 -0.96496568E-09
    4    2   -0.26145858E-02  0.36053195E-09
    5    2   -0.88955409E-03 -0.41957095E-09
    6    2    0.22776014E-02  0.36797612E-09
    7    2   -0.24621420E-02 -0.58431169E-09
    8    2   -0.61851037E-04 -0.19236852E-09
    1    3   -0.57791981E-02  0.62316539E-09
    2    3   -0.17160491E-02 -0.81771125E-09
    3    3    0.13870829E-01 -0.25291299E-09
    4    3   -0.14016584E-02 -0.89721280E-09
    5    3   -0.54250282E-03  0.95278858E-09
    6    3   -0.22501541E-02 -0.85368311E-10
    7    3    0.27233385E-02  0.82373719E-10
    8    3   -0.11463224E-03  0.81294604E-10
    1    4   -0.87411982E-03  0.11303964E-08
    2    4   -0.30632589E-02  0.33798310E-09
    3    4   -0.32083096E-02 -0.12201830E-10
    4    4    0.14299762E-01 -0.18823270E-08
    5    4    0.32982727E-03  0.17125552E-08
    6    4   -0.47089333E-04 -0.52938339E-09
    7    4    0.18926500E-03 -0.58781154E-09
    8    4   -0.52911132E-02  0.23241825E-13
    1    5    0.25940358E-03  0.21949799E-09
    2    5   -0.26795258E-02  0.11641178E-08
    3    5   -0.25513280E-02  0.23285053E-09
    4    5   -0.17679221E-02 -0.63920199E-09
    5    5   -0.23949347E-03 -0.60035629E-10
    6    5   -0.10629387E-03 -0.82369505E-10
    7    5   -0.11572774E-03 -0.22202043E-10
    8    5   -0.10982728E-03  0.10213907E-09
    1    6    0.57346103E-03  0.57974418E-09
    2    6   -0.82737887E-02 -0.11044672E-08
    3    6   -0.34671934E-02  0.73076862E-09
    4    6   -0.10384475E-02  0.11799633E-08
    5    6    0.11436380E-03 -0.21146682E-09
    6    6   -0.98694251E-03  0.20636988E-09
    7    6   -0.34619528E-03 -0.21696802E-11
    8    6   -0.35250215E-03 -0.58197293E-10
    1    7    0.18732747E-02 -0.52062413E-09
    2    7   -0.42412863E-02  0.65783024E-09
    3    7   -0.78291587E-02 -0.71649847E-09
    4    7   -0.11593333E-02 -0.29009991E-08
    5    7    0.11635741E-03  0.10617144E-09
    6    7   -0.38384181E-03 -0.36257239E-11
    7    7   -0.95368490E-03 -0.21895880E-09
    8    7   -0.39760880E-03 -0.38868833E-09
    1    8    0.12844597E-03  0.47829662E-09
    2    8    0.45083787E-02 -0.92986317E-09
    3    8    0.47705542E-02 -0.82368874E-09
    4    8    0.73782332E-03 -0.37095847E-11
    5    8    0.12045635E-03 -0.44657027E-10
    6    8   -0.34651705E-03  0.14913796E-09
    7    8   -0.34265317E-03 -0.34789005E-09
    8    8   -0.97314719E-03  0.13188358E-09

   -2    1   -1
    1    1    0.75301933E-02  0.83396118E-09
    2    1    0.37315535E-01  0.23761130E-09
    3    1    0.11626288E-01  0.69108581E-09
    4    1   -0.33055760E-02 -0.16474551E-08
    5    1   -0.10617853E-02  0.77723702E-09
    6    1    0.36587493E-03  0.28738626E-09
    7    1   -0.12994846E-02 -0.61061202E-09
    8    1   -0.12971802E-02  0.21894753E-09
    1    2   -0.54240659E-02  0.38319546E-09
    2    2    0.85073763E-01  0.11343811E-08
    3    2   -0.48168041E-01  0.75415469E-09
    4    2    0.20909729E-02  0.97759276E-09
    5    2    0.27226059E-02  0.46213191E-09
    6    2   -0.81892224E-02  0.60884574E-09
    7    2    0.48662805E-02 -0.48509230E-09
    8    2    0.36848238E-02  0.28876734E-09
    1    3   -0.21084990E-01  0.33660087E-09
    2    3   -0.30823454E-01 -0.37923697E-09
    3    3    0.19358767E-01 -0.19732494E-08
    4    3    0.26368397E-02 -0.12538932E-08
    5    3    0.20230853E-02  0.11158641E-08
    6    3   -0.83003877E-03 -0.96951553E-09
    7    3    0.32932038E-03  0.98845178E-09
    8    3    0.75828470E-03 -0.18207241E-08
    1    4   -0.20486772E-02  0.16770092E-08
    2    4   -0.44095275E-02  0.13198909E-08
    3    4   -0.26591665E-02 -0.13733952E-08
    4    4   -0.71354342E-02  0.27236360E-09
    5    4   -0.27618420E-02  0.21446091E-08
    6    4    0.41464163E-02 -0.18635454E-08
    7    4   -0.44055934E-02  0.10900556E-08
    8    4   -0.81432801E-02 -0.30943067E-08
    1    5    0.14331722E-03  0.96435254E-10
    2    5   -0.24585522E-02  0.27066389E-09
    3    5   -0.16727576E-02  0.66437848E-09
    4    5   -0.27129678E-02 -0.14102653E-08
    5    5   -0.25560346E-03 -0.13187250E-09
    6    5    0.21625929E-03  0.73887100E-11
    7    5   -0.29300615E-03 -0.22244511E-09
    8    5   -0.13891568E-04  0.30354737E-10
    1    6   -0.83613690E-03 -0.24340945E-09
    2    6   -0.82799130E-02  0.73377718E-09
    3    6   -0.94746824E-03 -0.68084208E-09
    4    6   -0.43812675E-02 -0.58869561E-09
    5    6   -0.47005277E-04  0.88420895E-11
    6    6    0.86171427E-03  0.14870304E-10
    7    6    0.28274530E-02  0.10631388E-09
    8    6   -0.45760848E-04 -0.10778709E-09
    1    7    0.14063733E-02  0.73975794E-10
    2    7    0.39555583E-02 -0.64289381E-09
    3    7    0.24136746E-02 -0.24490207E-09
    4    7    0.37151949E-02  0.18358124E-09
    5    7    0.43374008E-03  0.32999589E-09
    6    7    0.25928827E-02 -0.42070174E-10
    7    7    0.25287525E-02  0.85724429E-10
    8    7   -0.14145590E-04 -0.54799376E-10
    1    8   -0.10917482E-02 -0.27135253E-10
    2    8   -0.41564056E-02  0.35332178E-10
    3    8   -0.10030089E-02 -0.78780232E-09
    4    8   -0.82390474E-02 -0.20582352E-08
    5    8   -0.11012001E-04  0.99880079E-10
    6    8    0.23181179E-04 -0.39811508E-10
    7    8    0.35739878E-04 -0.23504755E-09
    8    8   -0.12953592E-02 -0.50512440E-09

   -2    1    0
    1    1    0.21460769E-01  0.27054011E-08
    2    1   -0.39034403E-01 -0.26451239E-08
    3    1    0.44144148E-01  0.31701067E-08
    4    1    0.25152970E-01 -0.23320028E-08
    5    1    0.41534881E-02  0.44799988E-09
    6    1   -0.11759429E-01 -0.22578312E-09
    7    1    0.30625441E-02 -0.32872274E-09
    8    1    0.17706648E-02 -0.15218591E-09
    1    2    0.14215856E-01  0.24705539E-08
    2    2   -0.36887531E-01 -0.11521670E-09
    3    2    0.41935478E-01  0.22120846E-08
    4    2    0.22597336E-02  0.43486085E-08
    5    2   -0.25858607E-02  0.39871937E-09
    6    2   -0.46456526E-03 -0.31481484E-09
    7    2   -0.39423864E-02 -0.10427062E-09
    8    2   -0.38551277E-02  0.29594736E-09
    1    3   -0.14068966E-01  0.12477035E-09
    2    3    0.21339655E-01  0.16165202E-08
    3    3   -0.22590653E-02 -0.47654913E-08
    4    3   -0.19950942E-01 -0.36851450E-08
    5    3   -0.28825560E-02  0.94623493E-09
    6    3    0.55587445E-02  0.76072438E-09
    7    3   -0.59162323E-02  0.35275106E-09
    8    3   -0.54643582E-02 -0.99403771E-09
    1    4   -0.26067380E-01  0.40489485E-08
    2    4    0.16052901E-01  0.43392194E-08
    3    4   -0.53479996E-01 -0.19625060E-08
    4    4   -0.36867574E-01  0.39732263E-08
    5    4   -0.60446736E-02  0.19078717E-08
    6    4    0.10232588E-01  0.56967472E-09
    7    4   -0.68462672E-02 -0.56002486E-09
    8    4   -0.57298225E-02 -0.21681413E-08
    1    5   -0.60960849E-02 -0.29701788E-10
    2    5    0.83641694E-02 -0.45553034E-09
    3    5   -0.28817870E-02 -0.15170715E-08
    4    5   -0.95679232E-03 -0.33921633E-08
    5    5   -0.23119506E-02 -0.16703333E-10
    6    5    0.34848777E-02 -0.26499392E-11
    7    5   -0.29485453E-02 -0.12462604E-09
    8    5   -0.33919833E-02 -0.23065529E-10
    1    6    0.98770145E-02 -0.59020547E-09
    2    6   -0.24569409E-01  0.15252267E-08
    3    6    0.40229339E-01 -0.18027673E-08
    4    6   -0.43256812E-02 -0.24677236E-08
    5    6   -0.29739208E-02  0.82172983E-10
    6    6    0.18099604E-02 -0.17533640E-09
    7    6   -0.34403136E-02  0.19798453E-09
    8    6   -0.12268639E-01 -0.25846752E-09
    1    7    0.11564396E-01  0.13490593E-08
    2    7   -0.10140167E-01 -0.69088756E-10
    3    7    0.26193237E-01  0.17896553E-08
    4    7   -0.17398952E-02  0.22977482E-08
    5    7    0.31008566E-02  0.97834876E-10
    6    7   -0.35258209E-02 -0.28411866E-09
    7    7    0.75277026E-02 -0.17193069E-09
    8    7    0.35248547E-02 -0.50599187E-09
    1    8   -0.32128839E-02  0.10782880E-10
    2    8    0.20521930E-03  0.12932485E-08
    3    8    0.37595777E-04 -0.22173854E-08
    4    8   -0.21088476E-01 -0.66983223E-08
    5    8    0.31561437E-02 -0.36615821E-09
    6    8   -0.12581023E-01 -0.12312185E-09
    7    8    0.33280387E-02 -0.20449901E-09
    8    8    0.17377423E-02 -0.13320505E-08

   -2    1    1
    1    1    0.19210872E-01 -0.10835396E-08
    2    1   -0.28479991E-01  0.23248045E-08
    3    1    0.42129435E-01 -0.18687152E-08
    4    1    0.24851677E-01 -0.70539152E-08
    5    1    0.12305449E-02 -0.19784680E-09
    6    1   -0.23151952E-02  0.88928923E-10
    7    1    0.28742164E-02 -0.21785502E-09
    8    1    0.21105790E-03 -0.16511841E-09
    1    2    0.23217904E-01 -0.13702251E-08
    2    2   -0.37472295E-01 -0.14672996E-09
    3    2    0.14010886E-01 -0.23356112E-08
    4    2    0.24557627E-01 -0.61566764E-10
    5    2    0.21794782E-02 -0.16858926E-09
    6    2   -0.81241735E-02 -0.19741306E-08
    7    2    0.39822203E-02  0.59380865E-09
    8    2    0.42753979E-02 -0.70422958E-10
    1    3   -0.13109099E-01  0.25893256E-08
    2    3    0.97210634E-03 -0.20495422E-08
    3    3   -0.31957991E-01 -0.16024695E-08
    4    3   -0.20824555E-01 -0.14349129E-08
    5    3   -0.18620497E-02  0.11562662E-08
    6    3    0.34254884E-02  0.15971975E-08
    7    3   -0.75161597E-02 -0.17167815E-08
    8    3   -0.43340293E-02  0.44630128E-09
    1    4   -0.20665889E-01  0.79518469E-08
    2    4    0.41687372E-01 -0.15810446E-08
    3    4   -0.49359893E-01  0.31343228E-08
    4    4   -0.45203557E-02  0.40138683E-08
    5    4    0.13842272E-02  0.21403498E-08
    6    4   -0.10530753E-02  0.23313943E-08
    7    4    0.93334418E-03 -0.24368725E-08
    8    4    0.19621586E-02  0.17028075E-08
    1    5    0.84955614E-01  0.57225573E-09
    2    5   -0.93322324E-01 -0.33578959E-08
    3    5    0.12436801E+00  0.49738721E-08
    4    5    0.65072639E-01 -0.74753244E-09
    5    5   -0.22567880E-02 -0.21444291E-10
    6    5    0.30900464E-02 -0.15164271E-09
    7    5   -0.31255297E-02 -0.26442364E-09
    8    5   -0.30568643E-02  0.65816079E-09
    1    6    0.84823165E-01  0.28684404E-09
    2    6   -0.48696279E-01 -0.66968674E-09
    3    6    0.13336299E+00  0.17132060E-08
    4    6    0.81099557E-01  0.16572709E-08
    5    6   -0.33105332E-02  0.15742382E-10
    6    6    0.18518855E-02 -0.34576116E-09
    7    6   -0.12491701E-01 -0.96938682E-10
    8    6   -0.33168434E-02  0.39053702E-09
    1    7   -0.95460020E-01  0.48557965E-09
    2    7    0.10634528E+00 -0.77330479E-10
    3    7   -0.67818212E-01 -0.10796452E-08
    4    7   -0.81614601E-01 -0.89204560E-09
    5    7    0.31921696E-02  0.39116872E-09
    6    7   -0.12272335E-01  0.28720596E-09
    7    7    0.16899794E-02 -0.64394009E-10
    8    7    0.32125843E-02 -0.31241184E-09
    1    8   -0.72270510E-01 -0.30253107E-08
    2    8    0.10818482E+00  0.94681533E-08
    3    8   -0.13750549E+00 -0.10993126E-07
    4    8   -0.30821779E-01 -0.74695945E-08
    5    8    0.30735482E-02 -0.46891051E-09
    6    8   -0.37476873E-02  0.38876872E-09
    7    8    0.34218413E-02 -0.75380501E-10
    8    8    0.76647467E-02 -0.93792634E-09

   -2    1    2
    1    1    0.31696684E-02  0.31798598E-09
    2    1    0.22010770E-01  0.25131178E-08
    3    1    0.32680346E-02 -0.11634315E-08
    4    1    0.14774419E-01 -0.30497190E-08
    5    1   -0.50454368E-03 -0.51041602E-10
    6    1   -0.30962775E-03 -0.19772437E-10
    7    1    0.11467991E-02 -0.81867329E-10
    8    1    0.17265837E-03 -0.46064206E-09
    1    2   -0.23248968E-01 -0.94128380E-09
    2    2    0.86453439E-01  0.20120283E-08
    3    2   -0.63811800E-02 -0.18055481E-08
    4    2   -0.39081479E-01  0.49194643E-09
    5    2   -0.88995151E-03 -0.92801257E-09
    6    2    0.23963472E-02 -0.72971956E-09
    7    2    0.85653439E-04  0.15468855E-08
    8    2   -0.28505655E-02 -0.58203288E-09
    1    3    0.49237296E-02  0.20403447E-08
    2    3    0.56553879E-02 -0.22201143E-08
    3    3   -0.59372797E-02  0.95601289E-09
    4    3    0.43229527E-02  0.35545227E-09
    5    3   -0.38848002E-03  0.86770857E-09
    6    3   -0.23390644E-04  0.45764263E-09
    7    3   -0.49206896E-02 -0.14298701E-08
    8    3    0.80027006E-04  0.51443210E-09
    1    4   -0.17805186E-01  0.24539856E-08
    2    4   -0.44856142E-01 -0.60195443E-09
    3    4   -0.55557712E-02  0.15157879E-08
    4    4    0.21079208E-01 -0.28881921E-08
    5    4   -0.85470222E-03  0.18892242E-08
    6    4   -0.27654238E-02  0.13197043E-08
    7    4    0.84610424E-04 -0.23617661E-08
    8    4    0.21873348E-02  0.17221540E-08
    1    5   -0.77681785E-02  0.73025444E-09
    2    5    0.34916641E-02 -0.81140180E-10
    3    5    0.13829383E-03  0.55809842E-09
    4    5   -0.11451996E-01 -0.12036079E-08
    5    5   -0.24529508E-03 -0.56423866E-10
    6    5    0.16259617E-04  0.87685674E-10
    7    5    0.30302360E-05  0.81337975E-11
    8    5   -0.43499241E-03  0.61158375E-10
    1    6    0.24708238E-01  0.69682833E-09
    2    6   -0.25939203E-01 -0.40842752E-08
    3    6    0.85950098E-02  0.26970673E-08
    4    6    0.30828120E-01  0.47932742E-08
    5    6   -0.13713725E-03  0.71987275E-10
    6    6    0.89642745E-03 -0.33883914E-09
    7    6    0.42729555E-04  0.11938786E-09
    8    6    0.26193148E-02  0.40685719E-09
    1    7    0.61996497E-02  0.31671221E-10
    2    7   -0.22289749E-03  0.22301849E-08
    3    7   -0.21586392E-01 -0.17887886E-08
    4    7   -0.58424517E-03 -0.32610229E-08
    5    7    0.22147978E-04  0.18746974E-10
    6    7   -0.57917187E-04  0.17180226E-09
    7    7   -0.12650377E-02 -0.43690093E-09
    8    7   -0.46555945E-04 -0.25023660E-09
    1    8    0.19948345E-01  0.10973526E-08
    2    8   -0.40826367E-03  0.19996469E-08
    3    8    0.38996239E-02 -0.17121003E-08
    4    8    0.32599336E-01  0.12381864E-08
    5    8    0.31449483E-03 -0.41919315E-10
    6    8    0.28055112E-02  0.37948160E-09
    7    8    0.43925751E-04 -0.42187772E-09
    8    8    0.25156622E-02  0.23308188E-09

   -2    1    3
    1    1    0.28246412E-02  0.26537793E-09
    2    1    0.37100978E-02  0.86041681E-09
    3    1   -0.47118265E-03 -0.36838583E-09
    4    1    0.47061746E-02 -0.12177683E-08
    5    1   -0.49981992E-03  0.25504737E-11
    6    1    0.58920578E-03 -0.82746934E-10
    7    1   -0.95432152E-03 -0.12230200E-09
    8    1   -0.60747773E-03 -0.17619068E-09
    1    2   -0.18601286E-02  0.56184958E-09
    2    2    0.14475660E-01  0.17688921E-08
    3    2   -0.33459674E-02 -0.96496575E-09
    4    2   -0.26145858E-02  0.36053193E-09
    5    2   -0.88955409E-03 -0.41957100E-09
    6    2    0.22776014E-02  0.36797607E-09
[...]
    2    2    0.10523748E-03  0.22550222E-09  0.17837916E-03 -0.25711104E-11  0.13655920E-03 -0.21192401E-11
    3    2    0.19485389E-02  0.30430277E-08 -0.70759117E-03 -0.26007855E-08 -0.17878468E-03  0.43617538E-09
    4    2   -0.10563412E-03  0.29029460E-08  0.17996921E-02 -0.70776643E-08  0.79995410E-03 -0.64377512E-09
    5    2   -0.10652017E-03 -0.10492021E-09 -0.11400219E-03  0.20048847E-10 -0.22815630E-04  0.13734793E-09
    6    2    0.59399225E-03  0.54331262E-10  0.58371240E-03  0.31789614E-09 -0.37475219E-03  0.61418109E-10
    7    2    0.79255527E-03  0.66585174E-10  0.29561488E-03 -0.33832098E-09  0.33307381E-03  0.65165263E-10
    8    2    0.28511718E-03  0.53373971E-09  0.78391839E-03 -0.40794346E-09  0.34596858E-03 -0.21253097E-09
    1    3   -0.21703912E-04 -0.23052812E-09 -0.11211964E-03  0.98499228E-09 -0.17446455E-03  0.16399942E-08
    2    3   -0.14179108E-03  0.36272927E-09 -0.14941102E-03 -0.15416381E-08  0.16296593E-03  0.14217727E-08
    3    3   -0.13275010E-03 -0.38568890E-09 -0.30716326E-03  0.24286105E-09 -0.30746058E-03  0.23256417E-09
    4    3   -0.13621158E-03  0.29876876E-08  0.13554657E-03  0.75495972E-08 -0.11230477E-03  0.24367126E-08
    5    3   -0.99041423E-08  0.18680947E-10  0.69187775E-04 -0.57419523E-11  0.25807325E-03  0.71540521E-10
    6    3   -0.32132082E-03  0.62815508E-10 -0.89725141E-03 -0.95513672E-11  0.15533159E-02 -0.12112338E-09
    7    3    0.46617421E-03  0.61032569E-10  0.19464016E-03  0.36239853E-09  0.41688563E-03  0.14825340E-09
    8    3   -0.14149991E-03 -0.15651704E-09  0.27900576E-03  0.50791850E-09 -0.71006328E-03  0.38906124E-09
    1    4   -0.10395494E-02 -0.40038861E-09 -0.29024987E-03  0.23997606E-08 -0.19846397E-02  0.30431975E-08
    2    4   -0.12294617E-03  0.11484837E-08  0.81666139E-03  0.41427688E-09  0.17512081E-02  0.63174219E-08
    3    4    0.19071915E-02  0.51792109E-09 -0.16013113E-03 -0.19449216E-08 -0.62567596E-03 -0.65867474E-08
    4    4    0.20754386E-03  0.47290542E-09  0.33709056E-03 -0.21844241E-10  0.42690406E-03  0.48818866E-10
    5    4    0.41806947E-04  0.86793854E-10 -0.18130638E-04 -0.92117268E-10  0.21338399E-03  0.44750028E-10
    6    4   -0.93920597E-03 -0.16308500E-09 -0.38881212E-03  0.38531424E-09  0.16368945E-02 -0.64931496E-10
    7    4    0.27369166E-03  0.82810725E-09 -0.13879031E-03  0.34157234E-09 -0.56200577E-03 -0.27890751E-09
    8    4    0.26456766E-03  0.64382504E-10  0.47460114E-03 -0.19259215E-09  0.59130331E-03 -0.12722609E-09
    1    5   -0.18819621E-03  0.86088961E-11  0.20014168E-05 -0.17538700E-11 -0.12257049E-04  0.78282195E-10
    2    5    0.17024861E-03  0.48034761E-10 -0.23238489E-03 -0.48640438E-10  0.49149864E-03 -0.86454255E-10
    3    5   -0.76958837E-04  0.50772015E-11  0.82514890E-04  0.62119648E-10 -0.13946659E-03 -0.37691929E-10
    4    5    0.38248143E-05 -0.87599716E-10  0.42681588E-03 -0.18577877E-10 -0.27657203E-03  0.75310287E-10
    5    5    0.49791103E-06 -0.38872451E-11  0.54279812E-06 -0.12785693E-10  0.48448206E-06 -0.11532505E-10
    6    5   -0.36466681E-04  0.18734021E-10 -0.65436925E-04  0.33282766E-10  0.10672083E-03 -0.21797405E-11
    7    5   -0.14999053E-04 -0.72492660E-11 -0.50894004E-05 -0.23641154E-10 -0.14010597E-04 -0.19849205E-10
    8    5    0.27018697E-04  0.48733488E-11  0.10686135E-03  0.43190294E-11 -0.64776610E-04  0.63346672E-11
    1    6    0.26598866E-04 -0.50255395E-10  0.23673478E-03 -0.11537210E-09 -0.17266673E-03  0.27112024E-10
    2    6    0.35950302E-03 -0.25695804E-09  0.17914292E-03 -0.47119401E-09  0.10716341E-02  0.35160174E-10
    3    6    0.32919284E-04 -0.77361675E-10  0.99944610E-04  0.18481544E-09 -0.30369417E-03 -0.33288838E-10
    4    6   -0.61887292E-03 -0.33803788E-09  0.11437775E-02  0.25101151E-09 -0.15142247E-03 -0.41495609E-09
    5    6    0.18382169E-04  0.68480825E-11  0.92974716E-04  0.25656775E-10 -0.10390477E-03 -0.86325066E-10
    6    6   -0.19172465E-05 -0.87956012E-11 -0.74947696E-06 -0.82301418E-10 -0.11813940E-05 -0.97253970E-10
    7    6   -0.90716552E-04 -0.63073205E-10 -0.20944098E-03 -0.10537147E-11  0.18206955E-03  0.18473136E-10
    8    6   -0.59660395E-04 -0.92955068E-10  0.91976984E-04  0.70413019E-10  0.83310785E-04 -0.64462264E-10
    1    7   -0.79871179E-03 -0.24830327E-09  0.53995923E-03  0.57295856E-10 -0.24866803E-03 -0.13415161E-09
    2    7    0.93401693E-03  0.56221606E-11 -0.12447071E-02  0.95731667E-10  0.19018670E-02 -0.96485401E-11
    3    7   -0.12432394E-03  0.54765519E-10 -0.17598003E-03 -0.24034731E-09 -0.25473088E-03 -0.33624243E-09
    4    7   -0.56008603E-03  0.42656657E-09  0.18484532E-02 -0.59077200E-09 -0.11231411E-02 -0.54957164E-09
    5    7   -0.32945179E-04  0.25623323E-10 -0.16719363E-04  0.28743426E-11 -0.15017055E-04 -0.25616138E-10
    6    7   -0.14810134E-03 -0.16534135E-10 -0.48631195E-04  0.10019137E-09  0.21854118E-03 -0.43794669E-10
    7    7   -0.51404800E-07  0.18695137E-10  0.25460079E-07  0.25650801E-10 -0.20074079E-06  0.19659665E-10
    8    7   -0.45213977E-04 -0.46990285E-10  0.25518362E-03 -0.10575080E-09 -0.84856787E-04 -0.10253255E-09
    1    8    0.21274405E-03 -0.11275042E-09 -0.10278045E-03  0.24401960E-09  0.19262636E-03  0.10601205E-09
    2    8   -0.64887178E-03  0.52879067E-09  0.10683049E-02  0.17813965E-09 -0.29293254E-03  0.18864852E-09
    3    8    0.19241957E-04 -0.53473309E-09 -0.13373493E-03 -0.29727056E-10  0.25534949E-03 -0.42672437E-09
    4    8    0.34195031E-03 -0.24977056E-09 -0.44589020E-04  0.13163644E-09  0.78583219E-03  0.15538570E-09
    5    8   -0.15335907E-05  0.12049687E-11 -0.95312653E-04  0.13543685E-11  0.84945915E-04  0.13407205E-10
    6    8   -0.43835357E-04  0.19596828E-11  0.79106652E-04  0.79274230E-10  0.94965300E-04 -0.80109715E-10
    7    8   -0.43841241E-04  0.70612016E-10  0.11144745E-03 -0.33536382E-11 -0.13736162E-03 -0.35733775E-10
    8    8   -0.17856722E-05 -0.10134847E-10 -0.11001303E-05 -0.18086061E-10 -0.77678172E-06 -0.23444434E-10

    3    0   -1
    1    1    0.34529619E-03 -0.14491200E-09  0.26406513E-03  0.31009930E-10  0.60939285E-03 -0.18107994E-09
    2    1   -0.19175878E-03 -0.71444668E-10 -0.37929317E-03  0.67435501E-09 -0.24708102E-02  0.45954719E-09
    3    1   -0.12220483E-02  0.40378380E-09 -0.23307954E-03 -0.99535576E-09 -0.95394988E-03 -0.12993320E-08
    4    1   -0.18595058E-03  0.69354239E-09 -0.18657341E-03 -0.19157574E-08 -0.40434938E-03 -0.15961690E-08
    5    1   -0.15920324E-03 -0.77473280E-10 -0.47627616E-05  0.12083001E-09  0.15541752E-03  0.25715674E-11
    6    1    0.41650643E-03  0.32356777E-09 -0.70137385E-04 -0.61732755E-10 -0.48110050E-03 -0.60260776E-10
    7    1   -0.85107496E-03  0.57246886E-10 -0.78961668E-04 -0.18519824E-09  0.97020296E-03 -0.37886945E-09
    8    1   -0.32847696E-05  0.37498483E-09  0.36460259E-04 -0.18722494E-09  0.91844691E-05 -0.18188357E-09
    1    2   -0.26382046E-02 -0.31099301E-10 -0.12523055E-03 -0.42189904E-09 -0.52514441E-03  0.13535598E-10
    2    2    0.23947310E-03  0.25791940E-09  0.70900127E-04 -0.10292302E-09  0.19907017E-03  0.17068486E-09
    3    2    0.69194375E-03  0.26244605E-08 -0.22200463E-03 -0.23072169E-08  0.77511724E-03 -0.40487646E-09
    4    2    0.58594503E-03  0.23182451E-09  0.22476829E-02 -0.58513849E-08 -0.46080607E-04 -0.35111433E-09
    5    2   -0.49531645E-03  0.38243843E-10  0.10139670E-06  0.25334554E-10  0.34869815E-03  0.40353581E-10
    6    2   -0.64289901E-03  0.37698679E-11  0.59852987E-05  0.46833431E-09 -0.51257754E-03 -0.41349916E-10
    7    2   -0.15528630E-02  0.23913755E-09  0.77423365E-05 -0.33012811E-09  0.95300908E-03 -0.24986237E-09
    8    2   -0.44954128E-05  0.65562253E-09  0.23310475E-03 -0.41665010E-09 -0.24316475E-05 -0.31057288E-09
    1    3    0.55478272E-03  0.18533873E-09  0.33478539E-04  0.52993064E-09 -0.32182996E-02 -0.23994724E-10
    2    3    0.79296122E-03  0.22388520E-09 -0.27040135E-03 -0.74679696E-09  0.86992939E-03 -0.99886267E-09
    3    3   -0.63839006E-03 -0.21234916E-09 -0.34511039E-03  0.10824910E-10 -0.79972310E-03  0.13682223E-11
    4    3   -0.19685844E-03  0.32049436E-08  0.22466907E-02  0.67664940E-08  0.45916790E-03 -0.17760697E-10
    5    3    0.32876285E-03 -0.16825570E-10 -0.12540727E-05  0.70747395E-10 -0.48754520E-03  0.51194019E-10
    6    3    0.12430086E-02 -0.32388774E-10 -0.62908431E-05 -0.37897755E-09 -0.17872506E-02  0.67534155E-10
    7    3   -0.87334146E-03  0.42065329E-09 -0.57691807E-05  0.50875052E-09 -0.41592074E-03  0.96435128E-10
    8    3   -0.47109155E-06 -0.25805294E-09  0.25750036E-03  0.46964242E-09 -0.70726368E-05  0.71174417E-09
    1    4   -0.38273978E-03  0.44176237E-09 -0.13571029E-04  0.43964321E-09 -0.11152088E-03  0.64857032E-09
    2    4    0.42750544E-04  0.14550244E-08 -0.19476526E-05  0.64705290E-09  0.12536584E-02  0.19577820E-08
    3    4    0.10303126E-02 -0.38197821E-09 -0.39058516E-05 -0.10999354E-09 -0.21734050E-04 -0.41493337E-08
    4    4    0.16403860E-03  0.24799909E-09  0.77247227E-04 -0.13968168E-10  0.16128713E-03  0.59705354E-10
    5    4    0.12304968E-04  0.13292087E-09 -0.13372208E-04  0.24045500E-11 -0.12966869E-04  0.18761347E-10
    6    4   -0.74554221E-04  0.35175391E-09 -0.44182540E-03 -0.19912415E-09  0.96040224E-04  0.72558346E-09
    7    4    0.12343723E-03  0.68938886E-09 -0.46782558E-03  0.24562685E-09 -0.12393163E-03 -0.60640922E-09
    8    4    0.93485973E-05  0.11928394E-09 -0.13757606E-04  0.65591953E-10  0.38765162E-04  0.18338239E-09
    1    5    0.29228200E-04  0.27335144E-10  0.62698517E-04 -0.14390498E-10  0.68569439E-05  0.38835023E-10
    2    5    0.12416720E-04  0.72152233E-10  0.33099135E-04  0.62155562E-10 -0.39235217E-04  0.30603584E-10
    3    5   -0.41758700E-04  0.36490915E-10  0.63423784E-04  0.36244732E-10  0.21009873E-04 -0.70633846E-10
    4    5    0.13225605E-04 -0.81060003E-10 -0.30393703E-04  0.61893638E-10  0.17870858E-04  0.10296474E-09
    5    5   -0.42222394E-06  0.32113466E-11 -0.28277923E-06 -0.56903614E-12 -0.16694924E-06  0.60850973E-11
    6    5   -0.94854771E-04 -0.17302724E-10 -0.39193971E-05  0.17099108E-10  0.13800161E-03  0.25255316E-10
    7    5    0.13802921E-03  0.20189029E-10 -0.39755341E-05  0.23628518E-10 -0.95987111E-04  0.13345749E-09
    8    5   -0.76067370E-07 -0.60485118E-11 -0.16430089E-04  0.40314805E-10 -0.36884641E-05  0.74035770E-10
    1    6    0.14772555E-03 -0.14718543E-09  0.35108939E-03 -0.90164066E-10  0.11345347E-04 -0.12801879E-09
    2    6   -0.57342599E-03 -0.17839843E-09 -0.50457077E-03 -0.24843376E-10  0.37373370E-03 -0.12376145E-09
    3    6    0.10582001E-03  0.47662568E-10 -0.43943079E-03  0.67869850E-10  0.45574953E-03 -0.41190092E-09
    4    6   -0.78261480E-03 -0.33678927E-09  0.22123821E-03  0.31399616E-09  0.90963718E-03 -0.24395510E-10
    5    6    0.11137356E-03  0.46856719E-10  0.23285835E-05 -0.10026082E-10 -0.10075794E-03  0.66642060E-10
    6    6    0.34585945E-06  0.20687181E-10  0.15628211E-05 -0.57803278E-11  0.74679962E-06  0.91591079E-12
    7    6    0.13780139E-04 -0.37612267E-11  0.10811746E-04 -0.68357685E-10  0.27329169E-04 -0.15756187E-09
    8    6   -0.29619131E-03  0.50519442E-10 -0.77695986E-05 -0.19573299E-10  0.78461322E-04  0.48936442E-10
    1    7    0.39392919E-04 -0.50556918E-10  0.35085933E-03 -0.76316601E-10  0.34951592E-03 -0.34949128E-09
    2    7    0.44361598E-03 -0.16465145E-09 -0.55395237E-03  0.17428721E-10  0.15983322E-04 -0.16158757E-09
    3    7    0.35814941E-03 -0.16139925E-09 -0.39697492E-03 -0.32336529E-09 -0.45556965E-03 -0.31577730E-09
    4    7    0.91447652E-03  0.86541503E-09  0.20962217E-03 -0.61992876E-09 -0.80312559E-03 -0.36283856E-09
    5    7   -0.10030354E-03  0.39130733E-10  0.23866865E-05  0.26258847E-10  0.11061528E-03  0.12295202E-10
    6    7    0.28389811E-04 -0.21318301E-10  0.12289407E-04  0.75349183E-10  0.15280854E-04  0.96837117E-10
    7    7    0.51150471E-06 -0.96002140E-10  0.76318791E-06 -0.17956026E-10  0.43825521E-06 -0.94471180E-10
    8    7    0.75306997E-04  0.58678660E-10 -0.84056042E-05  0.14970036E-09 -0.29650536E-03  0.50031482E-10
    1    8   -0.48850244E-04  0.10042385E-10 -0.98525709E-04 -0.36522955E-10  0.35145254E-03  0.97291907E-10
    2    8   -0.45039388E-03  0.48166912E-09  0.36764562E-03  0.21684686E-09  0.78746634E-03 -0.23599543E-09
    3    8    0.81769093E-03 -0.63056158E-09  0.34967518E-03  0.78411251E-10 -0.34422535E-03 -0.74218704E-10
    4    8   -0.20064615E-03 -0.12060084E-09  0.68586956E-04 -0.45028742E-10 -0.21737656E-03 -0.25147023E-09
    5    8   -0.27215004E-06  0.50877905E-10 -0.45976968E-04 -0.12628712E-10 -0.45832574E-05 -0.68471700E-10
    6    8   -0.94078361E-04  0.18937017E-09 -0.92371616E-04  0.79635259E-10  0.29880577E-03 -0.52663402E-10
    7    8    0.30033294E-03 -0.24886469E-10 -0.93122792E-04  0.29248205E-10 -0.99033888E-04 -0.12555337E-09
    8    8   -0.32839494E-06  0.25781570E-10  0.90402428E-07 -0.16003387E-10  0.47777899E-06  0.67350422E-13

    3    1   -2
    1    1    0.38628885E-03 -0.28356331E-10 -0.89842341E-04 -0.71903203E-10  0.42865843E-05 -0.76013695E-10
    2    1   -0.41218911E-03 -0.22327988E-09  0.59845546E-03  0.52243058E-09 -0.30964783E-02  0.44169739E-09
    3    1   -0.40897269E-03  0.52360111E-09 -0.10198196E-02 -0.79838524E-09 -0.11727784E-02 -0.91463048E-09
    4    1   -0.49348105E-05  0.63487304E-09 -0.37403014E-02 -0.19581759E-08  0.79096809E-03 -0.12299547E-08
    5    1   -0.10681718E-03  0.96406877E-11 -0.22095933E-05  0.47628934E-10 -0.77315825E-04 -0.13333490E-10
    6    1   -0.10551356E-04  0.69077970E-11 -0.72283782E-04 -0.47424611E-10  0.16025674E-03 -0.42036565E-10
    7    1   -0.21562439E-03  0.10462766E-09 -0.68015480E-04 -0.17760914E-09  0.36917510E-03 -0.18267746E-09
    8    1    0.42621016E-04  0.85640718E-10 -0.46811304E-03 -0.11634530E-09  0.41580358E-04 -0.29804114E-09
    1    2   -0.19741903E-02 -0.16573466E-09 -0.55290222E-03  0.57326603E-10 -0.83276551E-03 -0.57164003E-09
    2    2    0.11528141E-03  0.13701974E-09  0.82341158E-04  0.14572454E-09  0.15187871E-03  0.76952551E-10
    3    2    0.26284813E-02  0.23560524E-08 -0.72192727E-03 -0.31515962E-08  0.19237809E-02 -0.60653806E-09
    4    2   -0.15093638E-03  0.15212006E-08  0.33617948E-02 -0.55329795E-08  0.22252169E-02  0.69091511E-09
    5    2    0.74612193E-04 -0.66639195E-10 -0.15181248E-05  0.49491772E-10  0.15448238E-03  0.61022536E-10
    6    2   -0.83563247E-03  0.11008521E-09 -0.64824327E-05  0.11778691E-09 -0.24011369E-03 -0.21761848E-09
    7    2   -0.13596391E-02 -0.13400389E-10 -0.58403854E-07 -0.38670249E-09  0.28718477E-03  0.17681999E-09
    8    2    0.98332225E-07  0.55566217E-09  0.85844266E-03 -0.48194251E-09  0.14233059E-05 -0.66133967E-09
    1    3    0.16844139E-02  0.34481385E-10 -0.21449652E-02 -0.64467930E-09 -0.23732370E-02  0.21394233E-09
    2    3    0.19788677E-02  0.18603100E-08 -0.26027080E-03 -0.26527696E-08  0.24944152E-02 -0.21255142E-09
    3    3   -0.60033189E-03 -0.11953994E-09 -0.39467506E-03  0.18543228E-09 -0.38152560E-03  0.18897808E-09
    4    3    0.20284145E-02  0.29120342E-08  0.25496250E-02  0.65229264E-08 -0.55599150E-04 -0.31516069E-09
    5    3    0.11715893E-03 -0.26364220E-11 -0.28961874E-05  0.27249351E-11  0.44820297E-04 -0.12048548E-10
    6    3    0.31775571E-03 -0.66471548E-10 -0.12883809E-04 -0.70157185E-10 -0.14064911E-02 -0.36486403E-09
    7    3   -0.32869413E-03  0.93280292E-10 -0.18842029E-04  0.17571126E-09 -0.76223910E-03 -0.49604070E-10
    8    3    0.80206492E-05 -0.13952276E-09  0.75331136E-03  0.86359698E-09  0.67011199E-05  0.52942715E-09
    1    4   -0.15708994E-02 -0.40408741E-10 -0.13731268E-02 -0.41767049E-09 -0.45388469E-03  0.17437755E-09
    2    4   -0.27728736E-03  0.25478163E-08  0.21424694E-02 -0.32180930E-08  0.34668092E-02  0.34222868E-08
    3    4    0.27766037E-02  0.12389362E-08  0.18880716E-02  0.27732496E-08 -0.63818335E-03 -0.30177538E-08
    4    4    0.23530798E-03  0.25267474E-09  0.33580141E-03  0.28975816E-10  0.20095494E-03  0.98571807E-11
    5    4    0.12511545E-04  0.31017650E-10 -0.26386142E-04  0.12320410E-10  0.98844448E-05  0.55779668E-10
    6    4   -0.84819749E-05 -0.23460345E-09 -0.45828622E-03  0.16473904E-09 -0.19004297E-04  0.16011174E-09
    7    4    0.11155956E-04  0.57423967E-09 -0.46533028E-03 -0.23054057E-09 -0.39147155E-04 -0.73648559E-09
    8    4    0.26635122E-03 -0.80777992E-11  0.65225722E-04  0.48219501E-10  0.25497119E-03 -0.81548370E-10
    1    5   -0.26258298E-04 -0.21181731E-10 -0.19987745E-04  0.79442008E-11  0.28328920E-04 -0.21164816E-11
    2    5    0.38566360E-04  0.65621970E-10  0.20046317E-04  0.76194109E-10  0.20755702E-03 -0.15683144E-09
    3    5    0.19679572E-03  0.74834278E-10  0.24482643E-04 -0.16394331E-10  0.40283972E-04  0.27907110E-11
    4    5    0.19141543E-04 -0.53080228E-10 -0.10118776E-03  0.48124361E-10  0.11010700E-04  0.96154091E-10
    5    5    0.24013267E-07 -0.72317575E-11  0.13647985E-07 -0.56745077E-11  0.14561825E-07 -0.44570023E-11
    6    5   -0.27571025E-04  0.48536860E-11 -0.21941059E-04 -0.51070811E-10  0.75977457E-06  0.14284469E-10
    7    5   -0.22203344E-07 -0.57554905E-10 -0.21038154E-04  0.71281545E-10 -0.28833227E-04  0.50467923E-10
    8    5   -0.12227763E-04  0.68241936E-10 -0.70527731E-05 -0.19115608E-10 -0.13621534E-04 -0.30862954E-11
    1    6   -0.76743686E-04  0.57106040E-10  0.21365428E-03  0.63473982E-10 -0.43584480E-04 -0.68422313E-10
    2    6    0.19918009E-03 -0.12028432E-09  0.22615434E-03 -0.12880372E-09  0.29772551E-03  0.15870680E-09
    3    6    0.32176076E-03 -0.64219854E-10 -0.13904455E-04  0.10343807E-09  0.28717605E-03 -0.16893399E-09
    4    6   -0.26761202E-03 -0.44671344E-09 -0.25794547E-04  0.33295326E-09  0.43696377E-03 -0.20724279E-09
    5    6    0.16960818E-04  0.17287049E-10  0.22407425E-04 -0.69103391E-11  0.15321545E-06  0.14056619E-10
    6    6   -0.37720457E-06  0.23495519E-10  0.45803502E-06  0.34771362E-10 -0.15249625E-06  0.56604980E-10
    7    6   -0.48035348E-04 -0.15219099E-09 -0.10376140E-03  0.80136885E-10 -0.85310119E-04 -0.77654810E-11
    8    6   -0.63059767E-04  0.12936798E-09 -0.87963980E-04  0.36681874E-10 -0.43479880E-04 -0.70083470E-10
    1    7   -0.35438446E-04 -0.29991043E-10  0.10232037E-03 -0.20830308E-10 -0.24673931E-04  0.10791079E-09
    2    7    0.31600691E-03 -0.12598359E-09 -0.92572437E-04 -0.96730927E-10  0.33684912E-03  0.12620535E-09
    3    7    0.24967812E-03  0.35527035E-10  0.29437224E-03 -0.21513343E-09  0.19827492E-03 -0.16685973E-09
    4    7    0.43809952E-03  0.51543069E-09  0.11594159E-06 -0.70344386E-09 -0.27306137E-03 -0.48940187E-09
    5    7   -0.12421049E-05 -0.28852973E-10  0.22536929E-04 -0.60731418E-10  0.16912028E-04 -0.27955802E-10
    6    7   -0.82785759E-04 -0.16635327E-10 -0.10072535E-03  0.16339257E-09 -0.47137198E-04 -0.32505989E-10
    7    7    0.46934337E-06  0.65414396E-10  0.72298382E-07  0.19244130E-10 -0.16127770E-06  0.15810439E-10
    8    7   -0.44831143E-04 -0.11200659E-09 -0.85597289E-04  0.60185159E-12 -0.61985078E-04  0.11013454E-09
    1    8    0.26523637E-03  0.10677078E-09 -0.11064019E-03  0.16407356E-10  0.34431259E-03 -0.12185744E-09
    2    8   -0.55627670E-03  0.41923822E-09  0.12437861E-02 -0.28787534E-09 -0.30426701E-03 -0.33026958E-10
    3    8   -0.23897440E-03 -0.36420815E-09  0.12702912E-02  0.23465177E-09 -0.42743903E-03  0.10998134E-09
    4    8   -0.75749579E-04  0.11576740E-09 -0.10332069E-02  0.95048393E-10 -0.73911224E-04 -0.65105997E-10
    5    8    0.24617787E-04  0.85340199E-11 -0.20182444E-07  0.25154257E-10  0.23198383E-04 -0.57064189E-10
    6    8   -0.12504069E-03  0.50653196E-10 -0.57646167E-04  0.67548877E-10 -0.74797104E-04 -0.42868934E-10
    7    8   -0.73484232E-04 -0.12362336E-10 -0.60987771E-04  0.25658885E-10 -0.12765272E-03  0.16717027E-10
    8    8   -0.32682045E-06 -0.13598230E-10 -0.32639400E-06 -0.18244051E-10  0.44610135E-06 -0.12917454E-10
