
     Program PWSCF v.7.1 starts on  1Aug2024 at 13:39:28 

     This program is part of the open-source Quantum ESPRESSO suite
     for quantum simulation of materials; please cite
         "P. Giannozzi et al., J. Phys.:Condens. Matter 21 395502 (2009);
         "P. Giannozzi et al., J. Phys.:Condens. Matter 29 465901 (2017);
         "P. Giannozzi et al., J. Chem. Phys. 152 154105 (2020);
          URL http://www.quantum-espresso.org", 
     in publications or presentations arising from this work. More details at
     http://www.quantum-espresso.org/quote

     Parallel version (MPI), running on    12 processors

     MPI processes distributed on     1 nodes
     235227 MiB available memory on the printing compute node when the environment starts

     Waiting for input...
     Reading input from standard input

     Current dimensions of program PWSCF are:
     Max number of different atomic species (ntypx) = 10
     Max number of k-points (npk) =  40000
     Max angular momentum in pseudopotentials (lmaxx) =  4

     Atomic positions and unit cell read from directory:
     ./LiF.save/
     Atomic positions from file used, from input discarded


     R & G space division:  proc/nbgrp/npool/nimage =      12
     Subspace diagonalization in iterative solution of the eigenvalue problem:
     a serial algorithm will be used


     Parallelization info
     --------------------
     sticks:   dense  smooth     PW     G-vecs:    dense   smooth      PW
     Min          54      54     16                  917      917     156
     Max          55      55     17                  921      921     159
     Sum         649     649    199                11017    11017    1893

     Using Slab Decomposition



     bravais-lattice index     =            2
     lattice parameter (alat)  =       7.7035  a.u.
     unit-cell volume          =     114.2879 (a.u.)^3
     number of atoms/cell      =            2
     number of atomic types    =            2
     number of electrons       =        10.00
     number of Kohn-Sham states=           10
     kinetic-energy cutoff     =      80.0000  Ry
     charge density cutoff     =     320.0000  Ry
     Exchange-correlation= SLA  PW   NOGX NOGC
                           (   1   4   0   0   0   0   0)

     celldm(1)=   7.703476  celldm(2)=   0.000000  celldm(3)=   0.000000
     celldm(4)=   0.000000  celldm(5)=   0.000000  celldm(6)=   0.000000

     crystal axes: (cart. coord. in units of alat)
               a(1) = (  -0.500000   0.000000   0.500000 )  
               a(2) = (   0.000000   0.500000   0.500000 )  
               a(3) = (  -0.500000   0.500000   0.000000 )  

     reciprocal axes: (cart. coord. in units 2 pi/alat)
               b(1) = ( -1.000000 -1.000000  1.000000 )  
               b(2) = (  1.000000  1.000000  1.000000 )  
               b(3) = ( -1.000000  1.000000 -1.000000 )  


     PseudoPot. # 1 for Li read from file:
     ../psps/Li.upf
     MD5 check sum: cbd9518a540ce8f7f4a0218f2f072fdd
     Pseudo is Norm-conserving, Zval =  3.0
     Generated using ONCVPSP code by D. R. Hamann
     Using radial grid of 1944 points,  4 beta functions with: 
                l(1) =   0
                l(2) =   0
                l(3) =   1
                l(4) =   1

     PseudoPot. # 2 for F  read from file:
     ../psps/F.upf
     MD5 check sum: 3dea638f9c9153f3282cad43c3474f58
     Pseudo is Norm-conserving + core correction, Zval =  7.0
     Generated using ONCVPSP code by D. R. Hamann
     Using radial grid of  824 points,  5 beta functions with: 
                l(1) =   0
                l(2) =   0
                l(3) =   1
                l(4) =   1
                l(5) =   2

     atomic species   valence    mass     pseudopotential
        Li             3.00     6.94100     Li( 1.00)
        F              7.00    18.99840     F ( 1.00)

     48 Sym. Ops., with inversion, found


                                    s                        frac. trans.

      isym =  1     identity                                     

 cryst.   s( 1) = (     1          0          0      )
                  (     0          1          0      )
                  (     0          0          1      )

 cart.    s( 1) = (  1.0000000  0.0000000  0.0000000 )
                  (  0.0000000  1.0000000  0.0000000 )
                  (  0.0000000  0.0000000  1.0000000 )


      isym =  2     180 deg rotation - cart. axis [0,0,1]        

 cryst.   s( 2) = (     0          1         -1      )
                  (     1          0         -1      )
                  (     0          0         -1      )

 cart.    s( 2) = ( -1.0000000  0.0000000  0.0000000 )
                  (  0.0000000 -1.0000000  0.0000000 )
                  (  0.0000000  0.0000000  1.0000000 )


      isym =  3     180 deg rotation - cart. axis [0,1,0]        

 cryst.   s( 3) = (    -1          0          0      )
                  (    -1          0          1      )
                  (    -1          1          0      )

 cart.    s( 3) = ( -1.0000000  0.0000000  0.0000000 )
                  (  0.0000000  1.0000000  0.0000000 )
                  (  0.0000000  0.0000000 -1.0000000 )


      isym =  4     180 deg rotation - cart. axis [1,0,0]        

 cryst.   s( 4) = (     0         -1          1      )
                  (     0         -1          0      )
                  (     1         -1          0      )

 cart.    s( 4) = (  1.0000000  0.0000000  0.0000000 )
                  (  0.0000000 -1.0000000  0.0000000 )
                  (  0.0000000  0.0000000 -1.0000000 )


      isym =  5     180 deg rotation - cart. axis [1,1,0]        

 cryst.   s( 5) = (     0         -1          0      )
                  (    -1          0          0      )
                  (     0          0         -1      )

 cart.    s( 5) = (  0.0000000  1.0000000  0.0000000 )
                  (  1.0000000  0.0000000  0.0000000 )
                  (  0.0000000  0.0000000 -1.0000000 )


      isym =  6     180 deg rotation - cart. axis [1,-1,0]       

 cryst.   s( 6) = (    -1          0          1      )
                  (     0         -1          1      )
                  (     0          0          1      )

 cart.    s( 6) = (  0.0000000 -1.0000000  0.0000000 )
                  ( -1.0000000  0.0000000  0.0000000 )
                  (  0.0000000  0.0000000 -1.0000000 )


      isym =  7      90 deg rotation - cart. axis [0,0,-1]       

 cryst.   s( 7) = (     0          1          0      )
                  (     0          1         -1      )
                  (    -1          1          0      )

 cart.    s( 7) = (  0.0000000  1.0000000  0.0000000 )
                  ( -1.0000000  0.0000000  0.0000000 )
                  (  0.0000000  0.0000000  1.0000000 )


      isym =  8      90 deg rotation - cart. axis [0,0,1]        

 cryst.   s( 8) = (     1          0         -1      )
                  (     1          0          0      )
                  (     1         -1          0      )

 cart.    s( 8) = (  0.0000000 -1.0000000  0.0000000 )
                  (  1.0000000  0.0000000  0.0000000 )
                  (  0.0000000  0.0000000  1.0000000 )


      isym =  9     180 deg rotation - cart. axis [1,0,1]        

 cryst.   s( 9) = (    -1          0          0      )
                  (     0          0         -1      )
                  (     0         -1          0      )

 cart.    s( 9) = (  0.0000000  0.0000000  1.0000000 )
                  (  0.0000000 -1.0000000  0.0000000 )
                  (  1.0000000  0.0000000  0.0000000 )


      isym = 10     180 deg rotation - cart. axis [-1,0,1]       

 cryst.   s(10) = (     1          0          0      )
                  (     1         -1          0      )
                  (     1          0         -1      )

 cart.    s(10) = (  0.0000000  0.0000000 -1.0000000 )
                  (  0.0000000 -1.0000000  0.0000000 )
                  ( -1.0000000  0.0000000  0.0000000 )


      isym = 11      90 deg rotation - cart. axis [0,1,0]        

 cryst.   s(11) = (     0          1         -1      )
                  (    -1          1          0      )
                  (     0          1          0      )

 cart.    s(11) = (  0.0000000  0.0000000  1.0000000 )
                  (  0.0000000  1.0000000  0.0000000 )
                  ( -1.0000000  0.0000000  0.0000000 )


      isym = 12      90 deg rotation - cart. axis [0,-1,0]       

 cryst.   s(12) = (     0         -1          1      )
                  (     0          0          1      )
                  (    -1          0          1      )

 cart.    s(12) = (  0.0000000  0.0000000 -1.0000000 )
                  (  0.0000000  1.0000000  0.0000000 )
                  (  1.0000000  0.0000000  0.0000000 )


      isym = 13     180 deg rotation - cart. axis [0,1,1]        

 cryst.   s(13) = (    -1          1          0      )
                  (     0          1          0      )
                  (     0          1         -1      )

 cart.    s(13) = ( -1.0000000  0.0000000  0.0000000 )
                  (  0.0000000  0.0000000  1.0000000 )
                  (  0.0000000  1.0000000  0.0000000 )


      isym = 14     180 deg rotation - cart. axis [0,1,-1]       

 cryst.   s(14) = (     0          0         -1      )
                  (     0         -1          0      )
                  (    -1          0          0      )

 cart.    s(14) = ( -1.0000000  0.0000000  0.0000000 )
                  (  0.0000000  0.0000000 -1.0000000 )
                  (  0.0000000 -1.0000000  0.0000000 )


      isym = 15      90 deg rotation - cart. axis [-1,0,0]       

 cryst.   s(15) = (     0          0          1      )
                  (    -1          0          1      )
                  (     0         -1          1      )

 cart.    s(15) = (  1.0000000  0.0000000  0.0000000 )
                  (  0.0000000  0.0000000  1.0000000 )
                  (  0.0000000 -1.0000000  0.0000000 )


      isym = 16      90 deg rotation - cart. axis [1,0,0]        

 cryst.   s(16) = (     1         -1          0      )
                  (     1          0         -1      )
                  (     1          0          0      )

 cart.    s(16) = (  1.0000000  0.0000000  0.0000000 )
                  (  0.0000000  0.0000000 -1.0000000 )
                  (  0.0000000  1.0000000  0.0000000 )


      isym = 17     120 deg rotation - cart. axis [-1,-1,-1]     

 cryst.   s(17) = (    -1          0          1      )
                  (    -1          1          0      )
                  (    -1          0          0      )

 cart.    s(17) = (  0.0000000  1.0000000  0.0000000 )
                  (  0.0000000  0.0000000  1.0000000 )
                  (  1.0000000  0.0000000  0.0000000 )


      isym = 18     120 deg rotation - cart. axis [-1,1,1]       

 cryst.   s(18) = (     0          1          0      )
                  (     0          0          1      )
                  (     1          0          0      )

 cart.    s(18) = (  0.0000000 -1.0000000  0.0000000 )
                  (  0.0000000  0.0000000  1.0000000 )
                  ( -1.0000000  0.0000000  0.0000000 )


      isym = 19     120 deg rotation - cart. axis [1,1,-1]       

 cryst.   s(19) = (     1          0         -1      )
                  (     0          0         -1      )
                  (     0          1         -1      )

 cart.    s(19) = (  0.0000000  1.0000000  0.0000000 )
                  (  0.0000000  0.0000000 -1.0000000 )
                  ( -1.0000000  0.0000000  0.0000000 )


      isym = 20     120 deg rotation - cart. axis [1,-1,1]       

 cryst.   s(20) = (     0         -1          0      )
                  (     1         -1          0      )
                  (     0         -1          1      )

 cart.    s(20) = (  0.0000000 -1.0000000  0.0000000 )
                  (  0.0000000  0.0000000 -1.0000000 )
                  (  1.0000000  0.0000000  0.0000000 )


      isym = 21     120 deg rotation - cart. axis [1,1,1]        

 cryst.   s(21) = (     0          0         -1      )
                  (     0          1         -1      )
                  (     1          0         -1      )

 cart.    s(21) = (  0.0000000  0.0000000  1.0000000 )
                  (  1.0000000  0.0000000  0.0000000 )
                  (  0.0000000  1.0000000  0.0000000 )


      isym = 22     120 deg rotation - cart. axis [-1,1,-1]      

 cryst.   s(22) = (    -1          1          0      )
                  (    -1          0          0      )
                  (    -1          0          1      )

 cart.    s(22) = (  0.0000000  0.0000000  1.0000000 )
                  ( -1.0000000  0.0000000  0.0000000 )
                  (  0.0000000 -1.0000000  0.0000000 )


      isym = 23     120 deg rotation - cart. axis [1,-1,-1]      

 cryst.   s(23) = (     0          0          1      )
                  (     1          0          0      )
                  (     0          1          0      )

 cart.    s(23) = (  0.0000000  0.0000000 -1.0000000 )
                  ( -1.0000000  0.0000000  0.0000000 )
                  (  0.0000000  1.0000000  0.0000000 )


      isym = 24     120 deg rotation - cart. axis [-1,-1,1]      

 cryst.   s(24) = (     1         -1          0      )
                  (     0         -1          1      )
                  (     0         -1          0      )

 cart.    s(24) = (  0.0000000  0.0000000 -1.0000000 )
                  (  1.0000000  0.0000000  0.0000000 )
                  (  0.0000000 -1.0000000  0.0000000 )


      isym = 25     inversion                                    

 cryst.   s(25) = (    -1          0          0      )
                  (     0         -1          0      )
                  (     0          0         -1      )

 cart.    s(25) = ( -1.0000000  0.0000000  0.0000000 )
                  (  0.0000000 -1.0000000  0.0000000 )
                  (  0.0000000  0.0000000 -1.0000000 )


      isym = 26     inv. 180 deg rotation - cart. axis [0,0,1]   

 cryst.   s(26) = (     0         -1          1      )
                  (    -1          0          1      )
                  (     0          0          1      )

 cart.    s(26) = (  1.0000000  0.0000000  0.0000000 )
                  (  0.0000000  1.0000000  0.0000000 )
                  (  0.0000000  0.0000000 -1.0000000 )


      isym = 27     inv. 180 deg rotation - cart. axis [0,1,0]   

 cryst.   s(27) = (     1          0          0      )
                  (     1          0         -1      )
                  (     1         -1          0      )

 cart.    s(27) = (  1.0000000  0.0000000  0.0000000 )
                  (  0.0000000 -1.0000000  0.0000000 )
                  (  0.0000000  0.0000000  1.0000000 )


      isym = 28     inv. 180 deg rotation - cart. axis [1,0,0]   

 cryst.   s(28) = (     0          1         -1      )
                  (     0          1          0      )
                  (    -1          1          0      )

 cart.    s(28) = ( -1.0000000  0.0000000  0.0000000 )
                  (  0.0000000  1.0000000  0.0000000 )
                  (  0.0000000  0.0000000  1.0000000 )


      isym = 29     inv. 180 deg rotation - cart. axis [1,1,0]   

 cryst.   s(29) = (     0          1          0      )
                  (     1          0          0      )
                  (     0          0          1      )

 cart.    s(29) = (  0.0000000 -1.0000000  0.0000000 )
                  ( -1.0000000  0.0000000  0.0000000 )
                  (  0.0000000  0.0000000  1.0000000 )


      isym = 30     inv. 180 deg rotation - cart. axis [1,-1,0]  

 cryst.   s(30) = (     1          0         -1      )
                  (     0          1         -1      )
                  (     0          0         -1      )

 cart.    s(30) = (  0.0000000  1.0000000  0.0000000 )
                  (  1.0000000  0.0000000  0.0000000 )
                  (  0.0000000  0.0000000  1.0000000 )


      isym = 31     inv.  90 deg rotation - cart. axis [0,0,-1]  

 cryst.   s(31) = (     0         -1          0      )
                  (     0         -1          1      )
                  (     1         -1          0      )

 cart.    s(31) = (  0.0000000 -1.0000000  0.0000000 )
                  (  1.0000000  0.0000000  0.0000000 )
                  (  0.0000000  0.0000000 -1.0000000 )


      isym = 32     inv.  90 deg rotation - cart. axis [0,0,1]   

 cryst.   s(32) = (    -1          0          1      )
                  (    -1          0          0      )
                  (    -1          1          0      )

 cart.    s(32) = (  0.0000000  1.0000000  0.0000000 )
                  ( -1.0000000  0.0000000  0.0000000 )
                  (  0.0000000  0.0000000 -1.0000000 )


      isym = 33     inv. 180 deg rotation - cart. axis [1,0,1]   

 cryst.   s(33) = (     1          0          0      )
                  (     0          0          1      )
                  (     0          1          0      )

 cart.    s(33) = (  0.0000000  0.0000000 -1.0000000 )
                  (  0.0000000  1.0000000  0.0000000 )
                  ( -1.0000000  0.0000000  0.0000000 )


      isym = 34     inv. 180 deg rotation - cart. axis [-1,0,1]  

 cryst.   s(34) = (    -1          0          0      )
                  (    -1          1          0      )
                  (    -1          0          1      )

 cart.    s(34) = (  0.0000000  0.0000000  1.0000000 )
                  (  0.0000000  1.0000000  0.0000000 )
                  (  1.0000000  0.0000000  0.0000000 )


      isym = 35     inv.  90 deg rotation - cart. axis [0,1,0]   

 cryst.   s(35) = (     0         -1          1      )
                  (     1         -1          0      )
                  (     0         -1          0      )

 cart.    s(35) = (  0.0000000  0.0000000 -1.0000000 )
                  (  0.0000000 -1.0000000  0.0000000 )
                  (  1.0000000  0.0000000  0.0000000 )


      isym = 36     inv.  90 deg rotation - cart. axis [0,-1,0]  

 cryst.   s(36) = (     0          1         -1      )
                  (     0          0         -1      )
                  (     1          0         -1      )

 cart.    s(36) = (  0.0000000  0.0000000  1.0000000 )
                  (  0.0000000 -1.0000000  0.0000000 )
                  ( -1.0000000  0.0000000  0.0000000 )


      isym = 37     inv. 180 deg rotation - cart. axis [0,1,1]   

 cryst.   s(37) = (     1         -1          0      )
                  (     0         -1          0      )
                  (     0         -1          1      )

 cart.    s(37) = (  1.0000000  0.0000000  0.0000000 )
                  (  0.0000000  0.0000000 -1.0000000 )
                  (  0.0000000 -1.0000000  0.0000000 )


      isym = 38     inv. 180 deg rotation - cart. axis [0,1,-1]  

 cryst.   s(38) = (     0          0          1      )
                  (     0          1          0      )
                  (     1          0          0      )

 cart.    s(38) = (  1.0000000  0.0000000  0.0000000 )
                  (  0.0000000  0.0000000  1.0000000 )
                  (  0.0000000  1.0000000  0.0000000 )


      isym = 39     inv.  90 deg rotation - cart. axis [-1,0,0]  

 cryst.   s(39) = (     0          0         -1      )
                  (     1          0         -1      )
                  (     0          1         -1      )

 cart.    s(39) = ( -1.0000000  0.0000000  0.0000000 )
                  (  0.0000000  0.0000000 -1.0000000 )
                  (  0.0000000  1.0000000  0.0000000 )


      isym = 40     inv.  90 deg rotation - cart. axis [1,0,0]   

 cryst.   s(40) = (    -1          1          0      )
                  (    -1          0          1      )
                  (    -1          0          0      )

 cart.    s(40) = ( -1.0000000  0.0000000  0.0000000 )
                  (  0.0000000  0.0000000  1.0000000 )
                  (  0.0000000 -1.0000000  0.0000000 )


      isym = 41     inv. 120 deg rotation - cart. axis [-1,-1,-1]

 cryst.   s(41) = (     1          0         -1      )
                  (     1         -1          0      )
                  (     1          0          0      )

 cart.    s(41) = (  0.0000000 -1.0000000  0.0000000 )
                  (  0.0000000  0.0000000 -1.0000000 )
                  ( -1.0000000  0.0000000  0.0000000 )


      isym = 42     inv. 120 deg rotation - cart. axis [-1,1,1]  

 cryst.   s(42) = (     0         -1          0      )
                  (     0          0         -1      )
                  (    -1          0          0      )

 cart.    s(42) = (  0.0000000  1.0000000  0.0000000 )
                  (  0.0000000  0.0000000 -1.0000000 )
                  (  1.0000000  0.0000000  0.0000000 )


      isym = 43     inv. 120 deg rotation - cart. axis [1,1,-1]  

 cryst.   s(43) = (    -1          0          1      )
                  (     0          0          1      )
                  (     0         -1          1      )

 cart.    s(43) = (  0.0000000 -1.0000000  0.0000000 )
                  (  0.0000000  0.0000000  1.0000000 )
                  (  1.0000000  0.0000000  0.0000000 )


      isym = 44     inv. 120 deg rotation - cart. axis [1,-1,1]  

 cryst.   s(44) = (     0          1          0      )
                  (    -1          1          0      )
                  (     0          1         -1      )

 cart.    s(44) = (  0.0000000  1.0000000  0.0000000 )
                  (  0.0000000  0.0000000  1.0000000 )
                  ( -1.0000000  0.0000000  0.0000000 )


      isym = 45     inv. 120 deg rotation - cart. axis [1,1,1]   

 cryst.   s(45) = (     0          0          1      )
                  (     0         -1          1      )
                  (    -1          0          1      )

 cart.    s(45) = (  0.0000000  0.0000000 -1.0000000 )
                  ( -1.0000000  0.0000000  0.0000000 )
                  (  0.0000000 -1.0000000  0.0000000 )


      isym = 46     inv. 120 deg rotation - cart. axis [-1,1,-1] 

 cryst.   s(46) = (     1         -1          0      )
                  (     1          0          0      )
                  (     1          0         -1      )

 cart.    s(46) = (  0.0000000  0.0000000 -1.0000000 )
                  (  1.0000000  0.0000000  0.0000000 )
                  (  0.0000000  1.0000000  0.0000000 )


      isym = 47     inv. 120 deg rotation - cart. axis [1,-1,-1] 

 cryst.   s(47) = (     0          0         -1      )
                  (    -1          0          0      )
                  (     0         -1          0      )

 cart.    s(47) = (  0.0000000  0.0000000  1.0000000 )
                  (  1.0000000  0.0000000  0.0000000 )
                  (  0.0000000 -1.0000000  0.0000000 )


      isym = 48     inv. 120 deg rotation - cart. axis [-1,-1,1] 

 cryst.   s(48) = (    -1          1          0      )
                  (     0          1         -1      )
                  (     0          1          0      )

 cart.    s(48) = (  0.0000000  0.0000000  1.0000000 )
                  ( -1.0000000  0.0000000  0.0000000 )
                  (  0.0000000  1.0000000  0.0000000 )


     point group O_h (m-3m) 
     there are 10 classes
     the character table:

       E     8C3   3C2   6C4   6C2'  i     8S6   3s_h  6S4   6s_d 
A_1g   1.00  1.00  1.00  1.00  1.00  1.00  1.00  1.00  1.00  1.00
A_2g   1.00  1.00  1.00 -1.00 -1.00  1.00  1.00  1.00 -1.00 -1.00
E_g    2.00 -1.00  2.00  0.00  0.00  2.00 -1.00  2.00  0.00  0.00
T_1g   3.00  0.00 -1.00  1.00 -1.00  3.00  0.00 -1.00  1.00 -1.00
T_2g   3.00  0.00 -1.00 -1.00  1.00  3.00  0.00 -1.00 -1.00  1.00
A_1u   1.00  1.00  1.00  1.00  1.00 -1.00 -1.00 -1.00 -1.00 -1.00
A_2u   1.00  1.00  1.00 -1.00 -1.00 -1.00 -1.00 -1.00  1.00  1.00
E_u    2.00 -1.00  2.00  0.00  0.00 -2.00  1.00 -2.00  0.00  0.00
T_1u   3.00  0.00 -1.00  1.00 -1.00 -3.00  0.00  1.00 -1.00  1.00
T_2u   3.00  0.00 -1.00 -1.00  1.00 -3.00  0.00  1.00  1.00 -1.00

     the symmetry operations in each class and the name of the first element:

     E        1
          identity                                               
     8C3     17   19   20   18   24   21   22   23
          120 deg rotation - cart. axis [-1,-1,-1]               
     3C2      2    4    3
          180 deg rotation - cart. axis [0,0,1]                  
     6C4      7    8   15   16   12   11
           90 deg rotation - cart. axis [0,0,-1]                 
     6C2'     5    6   14   13   10    9
          180 deg rotation - cart. axis [1,1,0]                  
     i       25
          inversion                                              
     8S6     41   43   44   42   48   45   46   47
          inv. 120 deg rotation - cart. axis [-1,-1,-1]          
     3s_h    26   28   27
          inv. 180 deg rotation - cart. axis [0,0,1]             
     6S4     31   32   39   40   36   35
          inv.  90 deg rotation - cart. axis [0,0,-1]            
     6s_d    29   30   38   37   34   33
          inv. 180 deg rotation - cart. axis [1,1,0]             

   Cartesian axes

     site n.     atom                  positions (alat units)
         1           Li  tau(   1) = (   0.0000000   0.0000000   0.0000000  )
         2           F   tau(   2) = (   0.0000000  -0.5000000   0.0000000  )

   Crystallographic axes

     site n.     atom                  positions (cryst. coord.)
         1           Li  tau(   1) = (  0.0000000  0.0000000  0.0000000  )
         2           F   tau(   2) = (  0.5000000 -0.5000000 -0.5000000  )

     number of k points=   125
                       cart. coord. in units 2pi/alat
        k(    1) = (   0.0000000   0.0000000   0.0000000), wk =   0.0160000
        k(    2) = (  -0.2000000   0.2000000  -0.2000000), wk =   0.0160000
        k(    3) = (   0.2000000  -0.2000000  -0.2000000), wk =   0.0160000
        k(    4) = (   0.2000000   0.2000000   0.2000000), wk =   0.0160000
        k(    5) = (  -0.2000000  -0.2000000   0.2000000), wk =   0.0160000
        k(    6) = (   0.2000000  -0.2000000   0.2000000), wk =   0.0160000
        k(    7) = (  -0.2000000   0.2000000   0.2000000), wk =   0.0160000
        k(    8) = (  -0.2000000  -0.2000000  -0.2000000), wk =   0.0160000
        k(    9) = (   0.2000000   0.2000000  -0.2000000), wk =   0.0160000
        k(   10) = (  -0.4000000   0.4000000  -0.4000000), wk =   0.0160000
        k(   11) = (   0.4000000  -0.4000000  -0.4000000), wk =   0.0160000
        k(   12) = (   0.4000000   0.4000000   0.4000000), wk =   0.0160000
        k(   13) = (  -0.4000000  -0.4000000   0.4000000), wk =   0.0160000
        k(   14) = (   0.4000000  -0.4000000   0.4000000), wk =   0.0160000
        k(   15) = (  -0.4000000   0.4000000   0.4000000), wk =   0.0160000
        k(   16) = (  -0.4000000  -0.4000000  -0.4000000), wk =   0.0160000
        k(   17) = (   0.4000000   0.4000000  -0.4000000), wk =   0.0160000
        k(   18) = (   0.0000000   0.4000000   0.0000000), wk =   0.0160000
        k(   19) = (   0.0000000  -0.4000000   0.0000000), wk =   0.0160000
        k(   20) = (   0.4000000   0.0000000   0.0000000), wk =   0.0160000
        k(   21) = (  -0.4000000   0.0000000   0.0000000), wk =   0.0160000
        k(   22) = (   0.0000000   0.0000000   0.4000000), wk =   0.0160000
        k(   23) = (   0.0000000   0.0000000  -0.4000000), wk =   0.0160000
        k(   24) = (  -0.2000000   0.6000000  -0.2000000), wk =   0.0160000
        k(   25) = (   0.2000000  -0.6000000  -0.2000000), wk =   0.0160000
        k(   26) = (   0.2000000   0.6000000   0.2000000), wk =   0.0160000
        k(   27) = (  -0.2000000  -0.6000000   0.2000000), wk =   0.0160000
        k(   28) = (   0.6000000  -0.2000000   0.2000000), wk =   0.0160000
        k(   29) = (  -0.6000000   0.2000000   0.2000000), wk =   0.0160000
        k(   30) = (  -0.6000000  -0.2000000  -0.2000000), wk =   0.0160000
        k(   31) = (   0.6000000   0.2000000  -0.2000000), wk =   0.0160000
        k(   32) = (  -0.2000000  -0.6000000  -0.2000000), wk =   0.0160000
        k(   33) = (   0.2000000  -0.6000000   0.2000000), wk =   0.0160000
        k(   34) = (   0.2000000   0.6000000  -0.2000000), wk =   0.0160000
        k(   35) = (  -0.2000000   0.6000000   0.2000000), wk =   0.0160000
        k(   36) = (   0.2000000  -0.2000000   0.6000000), wk =   0.0160000
        k(   37) = (   0.2000000   0.2000000  -0.6000000), wk =   0.0160000
        k(   38) = (  -0.2000000   0.2000000   0.6000000), wk =   0.0160000
        k(   39) = (  -0.2000000  -0.2000000  -0.6000000), wk =   0.0160000
        k(   40) = (  -0.2000000  -0.2000000   0.6000000), wk =   0.0160000
        k(   41) = (   0.2000000   0.2000000   0.6000000), wk =   0.0160000
        k(   42) = (   0.2000000  -0.2000000  -0.6000000), wk =   0.0160000
        k(   43) = (  -0.2000000   0.2000000  -0.6000000), wk =   0.0160000
        k(   44) = (   0.6000000  -0.2000000  -0.2000000), wk =   0.0160000
        k(   45) = (  -0.6000000   0.2000000  -0.2000000), wk =   0.0160000
        k(   46) = (  -0.6000000  -0.2000000   0.2000000), wk =   0.0160000
        k(   47) = (   0.6000000   0.2000000   0.2000000), wk =   0.0160000
        k(   48) = (   0.6000000  -0.2000000   0.6000000), wk =   0.0160000
        k(   49) = (  -0.6000000   0.2000000   0.6000000), wk =   0.0160000
        k(   50) = (  -0.6000000  -0.2000000  -0.6000000), wk =   0.0160000
        k(   51) = (   0.6000000   0.2000000  -0.6000000), wk =   0.0160000
        k(   52) = (  -0.2000000   0.6000000  -0.6000000), wk =   0.0160000
        k(   53) = (   0.2000000  -0.6000000  -0.6000000), wk =   0.0160000
        k(   54) = (   0.2000000   0.6000000   0.6000000), wk =   0.0160000
        k(   55) = (  -0.2000000  -0.6000000   0.6000000), wk =   0.0160000
        k(   56) = (   0.6000000   0.2000000   0.6000000), wk =   0.0160000
        k(   57) = (  -0.6000000   0.2000000  -0.6000000), wk =   0.0160000
        k(   58) = (  -0.6000000  -0.2000000   0.6000000), wk =   0.0160000
        k(   59) = (   0.6000000  -0.2000000  -0.6000000), wk =   0.0160000
        k(   60) = (  -0.6000000   0.6000000  -0.2000000), wk =   0.0160000
        k(   61) = (  -0.6000000  -0.6000000   0.2000000), wk =   0.0160000
        k(   62) = (   0.6000000  -0.6000000  -0.2000000), wk =   0.0160000
        k(   63) = (   0.6000000   0.6000000   0.2000000), wk =   0.0160000
        k(   64) = (   0.6000000   0.6000000  -0.2000000), wk =   0.0160000
        k(   65) = (  -0.6000000  -0.6000000  -0.2000000), wk =   0.0160000
        k(   66) = (  -0.6000000   0.6000000   0.2000000), wk =   0.0160000
        k(   67) = (   0.6000000  -0.6000000   0.2000000), wk =   0.0160000
        k(   68) = (  -0.2000000   0.6000000   0.6000000), wk =   0.0160000
        k(   69) = (   0.2000000  -0.6000000   0.6000000), wk =   0.0160000
        k(   70) = (   0.2000000   0.6000000  -0.6000000), wk =   0.0160000
        k(   71) = (  -0.2000000  -0.6000000  -0.6000000), wk =   0.0160000
        k(   72) = (   0.4000000   0.0000000   0.4000000), wk =   0.0160000
        k(   73) = (  -0.4000000   0.0000000   0.4000000), wk =   0.0160000
        k(   74) = (  -0.4000000   0.0000000  -0.4000000), wk =   0.0160000
        k(   75) = (   0.4000000   0.0000000  -0.4000000), wk =   0.0160000
        k(   76) = (   0.0000000   0.4000000  -0.4000000), wk =   0.0160000
        k(   77) = (   0.0000000  -0.4000000  -0.4000000), wk =   0.0160000
        k(   78) = (   0.0000000   0.4000000   0.4000000), wk =   0.0160000
        k(   79) = (   0.0000000  -0.4000000   0.4000000), wk =   0.0160000
        k(   80) = (  -0.4000000   0.4000000   0.0000000), wk =   0.0160000
        k(   81) = (  -0.4000000  -0.4000000   0.0000000), wk =   0.0160000
        k(   82) = (   0.4000000  -0.4000000   0.0000000), wk =   0.0160000
        k(   83) = (   0.4000000   0.4000000   0.0000000), wk =   0.0160000
        k(   84) = (   0.0000000   0.8000000   0.0000000), wk =   0.0160000
        k(   85) = (   0.0000000  -0.8000000   0.0000000), wk =   0.0160000
        k(   86) = (   0.8000000   0.0000000   0.0000000), wk =   0.0160000
        k(   87) = (  -0.8000000   0.0000000   0.0000000), wk =   0.0160000
        k(   88) = (   0.0000000   0.0000000   0.8000000), wk =   0.0160000
        k(   89) = (   0.0000000   0.0000000  -0.8000000), wk =   0.0160000
        k(   90) = (   0.8000000   0.0000000   0.8000000), wk =   0.0160000
        k(   91) = (  -0.8000000   0.0000000   0.8000000), wk =   0.0160000
        k(   92) = (  -0.8000000   0.0000000  -0.8000000), wk =   0.0160000
        k(   93) = (   0.8000000   0.0000000  -0.8000000), wk =   0.0160000
        k(   94) = (   0.0000000   0.8000000  -0.8000000), wk =   0.0160000
        k(   95) = (   0.0000000  -0.8000000  -0.8000000), wk =   0.0160000
        k(   96) = (   0.0000000   0.8000000   0.8000000), wk =   0.0160000
        k(   97) = (   0.0000000  -0.8000000   0.8000000), wk =   0.0160000
        k(   98) = (  -0.8000000   0.8000000   0.0000000), wk =   0.0160000
        k(   99) = (  -0.8000000  -0.8000000   0.0000000), wk =   0.0160000
        k(  100) = (   0.8000000  -0.8000000   0.0000000), wk =   0.0160000
        k(  101) = (   0.8000000   0.8000000   0.0000000), wk =   0.0160000
        k(  102) = (   0.6000000  -0.2000000   1.0000000), wk =   0.0160000
        k(  103) = (  -0.6000000   0.2000000   1.0000000), wk =   0.0160000
        k(  104) = (  -0.6000000  -0.2000000  -1.0000000), wk =   0.0160000
        k(  105) = (   0.6000000   0.2000000  -1.0000000), wk =   0.0160000
        k(  106) = (  -0.2000000   0.6000000  -1.0000000), wk =   0.0160000
        k(  107) = (   0.2000000  -0.6000000  -1.0000000), wk =   0.0160000
        k(  108) = (   0.2000000   0.6000000   1.0000000), wk =   0.0160000
        k(  109) = (  -0.2000000  -0.6000000   1.0000000), wk =   0.0160000
        k(  110) = (   1.0000000   0.2000000   0.6000000), wk =   0.0160000
        k(  111) = (  -1.0000000   0.2000000  -0.6000000), wk =   0.0160000
        k(  112) = (  -1.0000000  -0.2000000   0.6000000), wk =   0.0160000
        k(  113) = (   1.0000000  -0.2000000  -0.6000000), wk =   0.0160000
        k(  114) = (  -0.6000000   1.0000000  -0.2000000), wk =   0.0160000
        k(  115) = (  -0.6000000  -1.0000000   0.2000000), wk =   0.0160000
        k(  116) = (   0.6000000  -1.0000000  -0.2000000), wk =   0.0160000
        k(  117) = (   0.6000000   1.0000000   0.2000000), wk =   0.0160000
        k(  118) = (   1.0000000   0.6000000  -0.2000000), wk =   0.0160000
        k(  119) = (  -1.0000000  -0.6000000  -0.2000000), wk =   0.0160000
        k(  120) = (  -1.0000000   0.6000000   0.2000000), wk =   0.0160000
        k(  121) = (   1.0000000  -0.6000000   0.2000000), wk =   0.0160000
        k(  122) = (  -0.2000000   1.0000000   0.6000000), wk =   0.0160000
        k(  123) = (   0.2000000  -1.0000000   0.6000000), wk =   0.0160000
        k(  124) = (   0.2000000   1.0000000  -0.6000000), wk =   0.0160000
        k(  125) = (  -0.2000000  -1.0000000  -0.6000000), wk =   0.0160000

                       cryst. coord.
        k(    1) = (   0.0000000   0.0000000   0.0000000), wk =   0.0160000
        k(    2) = (   0.0000000   0.0000000   0.2000000), wk =   0.0160000
        k(    3) = (  -0.2000000  -0.2000000  -0.2000000), wk =   0.0160000
        k(    4) = (   0.0000000   0.2000000   0.0000000), wk =   0.0160000
        k(    5) = (   0.2000000   0.0000000   0.0000000), wk =   0.0160000
        k(    6) = (   0.0000000   0.0000000  -0.2000000), wk =   0.0160000
        k(    7) = (   0.2000000   0.2000000   0.2000000), wk =   0.0160000
        k(    8) = (   0.0000000  -0.2000000   0.0000000), wk =   0.0160000
        k(    9) = (  -0.2000000   0.0000000   0.0000000), wk =   0.0160000
        k(   10) = (   0.0000000   0.0000000   0.4000000), wk =   0.0160000
        k(   11) = (  -0.4000000  -0.4000000  -0.4000000), wk =   0.0160000
        k(   12) = (   0.0000000   0.4000000   0.0000000), wk =   0.0160000
        k(   13) = (   0.4000000   0.0000000   0.0000000), wk =   0.0160000
        k(   14) = (   0.0000000   0.0000000  -0.4000000), wk =   0.0160000
        k(   15) = (   0.4000000   0.4000000   0.4000000), wk =   0.0160000
        k(   16) = (   0.0000000  -0.4000000   0.0000000), wk =   0.0160000
        k(   17) = (  -0.4000000   0.0000000   0.0000000), wk =   0.0160000
        k(   18) = (   0.0000000   0.2000000   0.2000000), wk =   0.0160000
        k(   19) = (   0.0000000  -0.2000000  -0.2000000), wk =   0.0160000
        k(   20) = (  -0.2000000   0.0000000  -0.2000000), wk =   0.0160000
        k(   21) = (   0.2000000   0.0000000   0.2000000), wk =   0.0160000
        k(   22) = (   0.2000000   0.2000000   0.0000000), wk =   0.0160000
        k(   23) = (  -0.2000000  -0.2000000   0.0000000), wk =   0.0160000
        k(   24) = (   0.0000000   0.2000000   0.4000000), wk =   0.0160000
        k(   25) = (  -0.2000000  -0.4000000  -0.4000000), wk =   0.0160000
        k(   26) = (   0.0000000   0.4000000   0.2000000), wk =   0.0160000
        k(   27) = (   0.2000000  -0.2000000  -0.2000000), wk =   0.0160000
        k(   28) = (  -0.2000000   0.0000000  -0.4000000), wk =   0.0160000
        k(   29) = (   0.4000000   0.2000000   0.4000000), wk =   0.0160000
        k(   30) = (   0.2000000  -0.2000000   0.2000000), wk =   0.0160000
        k(   31) = (  -0.4000000   0.0000000  -0.2000000), wk =   0.0160000
        k(   32) = (   0.0000000  -0.4000000  -0.2000000), wk =   0.0160000
        k(   33) = (   0.0000000  -0.2000000  -0.4000000), wk =   0.0160000
        k(   34) = (  -0.2000000   0.2000000   0.2000000), wk =   0.0160000
        k(   35) = (   0.2000000   0.4000000   0.4000000), wk =   0.0160000
        k(   36) = (   0.2000000   0.2000000  -0.2000000), wk =   0.0160000
        k(   37) = (  -0.4000000  -0.2000000   0.0000000), wk =   0.0160000
        k(   38) = (   0.4000000   0.4000000   0.2000000), wk =   0.0160000
        k(   39) = (  -0.2000000  -0.4000000   0.0000000), wk =   0.0160000
        k(   40) = (   0.4000000   0.2000000   0.0000000), wk =   0.0160000
        k(   41) = (   0.2000000   0.4000000   0.0000000), wk =   0.0160000
        k(   42) = (  -0.4000000  -0.4000000  -0.2000000), wk =   0.0160000
        k(   43) = (  -0.2000000  -0.2000000   0.2000000), wk =   0.0160000
        k(   44) = (  -0.4000000  -0.2000000  -0.4000000), wk =   0.0160000
        k(   45) = (   0.2000000   0.0000000   0.4000000), wk =   0.0160000
        k(   46) = (   0.4000000   0.0000000   0.2000000), wk =   0.0160000
        k(   47) = (  -0.2000000   0.2000000  -0.2000000), wk =   0.0160000
        k(   48) = (   0.0000000   0.2000000  -0.4000000), wk =   0.0160000
        k(   49) = (   0.6000000   0.4000000   0.4000000), wk =   0.0160000
        k(   50) = (   0.0000000  -0.4000000   0.2000000), wk =   0.0160000
        k(   51) = (  -0.6000000  -0.2000000  -0.2000000), wk =   0.0160000
        k(   52) = (  -0.2000000   0.0000000   0.4000000), wk =   0.0160000
        k(   53) = (  -0.4000000  -0.6000000  -0.4000000), wk =   0.0160000
        k(   54) = (   0.2000000   0.6000000   0.2000000), wk =   0.0160000
        k(   55) = (   0.4000000   0.0000000  -0.2000000), wk =   0.0160000
        k(   56) = (   0.0000000   0.4000000  -0.2000000), wk =   0.0160000
        k(   57) = (   0.0000000  -0.2000000   0.4000000), wk =   0.0160000
        k(   58) = (   0.6000000   0.2000000   0.2000000), wk =   0.0160000
        k(   59) = (  -0.6000000  -0.4000000  -0.4000000), wk =   0.0160000
        k(   60) = (   0.2000000   0.2000000   0.6000000), wk =   0.0160000
        k(   61) = (   0.4000000  -0.2000000   0.0000000), wk =   0.0160000
        k(   62) = (  -0.4000000  -0.4000000  -0.6000000), wk =   0.0160000
        k(   63) = (  -0.2000000   0.4000000   0.0000000), wk =   0.0160000
        k(   64) = (  -0.4000000   0.2000000   0.0000000), wk =   0.0160000
        k(   65) = (   0.2000000  -0.4000000   0.0000000), wk =   0.0160000
        k(   66) = (   0.4000000   0.4000000   0.6000000), wk =   0.0160000
        k(   67) = (  -0.2000000  -0.2000000  -0.6000000), wk =   0.0160000
        k(   68) = (   0.4000000   0.6000000   0.4000000), wk =   0.0160000
        k(   69) = (   0.2000000   0.0000000  -0.4000000), wk =   0.0160000
        k(   70) = (  -0.4000000   0.0000000   0.2000000), wk =   0.0160000
        k(   71) = (  -0.2000000  -0.6000000  -0.2000000), wk =   0.0160000
        k(   72) = (   0.0000000   0.2000000  -0.2000000), wk =   0.0160000
        k(   73) = (   0.4000000   0.2000000   0.2000000), wk =   0.0160000
        k(   74) = (   0.0000000  -0.2000000   0.2000000), wk =   0.0160000
        k(   75) = (  -0.4000000  -0.2000000  -0.2000000), wk =   0.0160000
        k(   76) = (  -0.2000000   0.0000000   0.2000000), wk =   0.0160000
        k(   77) = (  -0.2000000  -0.4000000  -0.2000000), wk =   0.0160000
        k(   78) = (   0.2000000   0.4000000   0.2000000), wk =   0.0160000
        k(   79) = (   0.2000000   0.0000000  -0.2000000), wk =   0.0160000
        k(   80) = (   0.2000000   0.2000000   0.4000000), wk =   0.0160000
        k(   81) = (   0.2000000  -0.2000000   0.0000000), wk =   0.0160000
        k(   82) = (  -0.2000000  -0.2000000  -0.4000000), wk =   0.0160000
        k(   83) = (  -0.2000000   0.2000000   0.0000000), wk =   0.0160000
        k(   84) = (   0.0000000   0.4000000   0.4000000), wk =   0.0160000
        k(   85) = (   0.0000000  -0.4000000  -0.4000000), wk =   0.0160000
        k(   86) = (  -0.4000000   0.0000000  -0.4000000), wk =   0.0160000
        k(   87) = (   0.4000000   0.0000000   0.4000000), wk =   0.0160000
        k(   88) = (   0.4000000   0.4000000   0.0000000), wk =   0.0160000
        k(   89) = (  -0.4000000  -0.4000000   0.0000000), wk =   0.0160000
        k(   90) = (   0.0000000   0.4000000  -0.4000000), wk =   0.0160000
        k(   91) = (   0.8000000   0.4000000   0.4000000), wk =   0.0160000
        k(   92) = (   0.0000000  -0.4000000   0.4000000), wk =   0.0160000
        k(   93) = (  -0.8000000  -0.4000000  -0.4000000), wk =   0.0160000
        k(   94) = (  -0.4000000   0.0000000   0.4000000), wk =   0.0160000
        k(   95) = (  -0.4000000  -0.8000000  -0.4000000), wk =   0.0160000
        k(   96) = (   0.4000000   0.8000000   0.4000000), wk =   0.0160000
        k(   97) = (   0.4000000   0.0000000  -0.4000000), wk =   0.0160000
        k(   98) = (   0.4000000   0.4000000   0.8000000), wk =   0.0160000
        k(   99) = (   0.4000000  -0.4000000   0.0000000), wk =   0.0160000
        k(  100) = (  -0.4000000  -0.4000000  -0.8000000), wk =   0.0160000
        k(  101) = (  -0.4000000   0.4000000   0.0000000), wk =   0.0160000
        k(  102) = (   0.2000000   0.4000000  -0.4000000), wk =   0.0160000
        k(  103) = (   0.8000000   0.6000000   0.4000000), wk =   0.0160000
        k(  104) = (  -0.2000000  -0.6000000   0.2000000), wk =   0.0160000
        k(  105) = (  -0.8000000  -0.4000000  -0.2000000), wk =   0.0160000
        k(  106) = (  -0.4000000  -0.2000000   0.4000000), wk =   0.0160000
        k(  107) = (  -0.6000000  -0.8000000  -0.4000000), wk =   0.0160000
        k(  108) = (   0.4000000   0.8000000   0.2000000), wk =   0.0160000
        k(  109) = (   0.6000000   0.2000000  -0.2000000), wk =   0.0160000
        k(  110) = (  -0.2000000   0.4000000  -0.4000000), wk =   0.0160000
        k(  111) = (   0.2000000  -0.2000000   0.6000000), wk =   0.0160000
        k(  112) = (   0.8000000   0.2000000   0.4000000), wk =   0.0160000
        k(  113) = (  -0.8000000  -0.4000000  -0.6000000), wk =   0.0160000
        k(  114) = (   0.2000000   0.4000000   0.8000000), wk =   0.0160000
        k(  115) = (   0.4000000  -0.4000000  -0.2000000), wk =   0.0160000
        k(  116) = (  -0.4000000  -0.6000000  -0.8000000), wk =   0.0160000
        k(  117) = (  -0.2000000   0.6000000   0.2000000), wk =   0.0160000
        k(  118) = (  -0.6000000   0.2000000  -0.2000000), wk =   0.0160000
        k(  119) = (   0.4000000  -0.4000000   0.2000000), wk =   0.0160000
        k(  120) = (   0.6000000   0.4000000   0.8000000), wk =   0.0160000
        k(  121) = (  -0.4000000  -0.2000000  -0.8000000), wk =   0.0160000
        k(  122) = (   0.4000000   0.8000000   0.6000000), wk =   0.0160000
        k(  123) = (   0.2000000  -0.2000000  -0.6000000), wk =   0.0160000
        k(  124) = (  -0.4000000   0.2000000   0.4000000), wk =   0.0160000
        k(  125) = (  -0.2000000  -0.8000000  -0.4000000), wk =   0.0160000

     Dense  grid:    11017 G-vectors     FFT dimensions: (  32,  32,  32)

     Dynamical RAM for                 wfc:       0.02 MB

     Dynamical RAM for     wfc (w. buffer):       0.02 MB

     Dynamical RAM for           str. fact:       0.03 MB

     Dynamical RAM for           local pot:       0.00 MB

     Dynamical RAM for          nlocal pot:       0.04 MB

     Dynamical RAM for                qrad:       2.05 MB

     Dynamical RAM for          rho,v,vnew:       0.11 MB

     Dynamical RAM for           G-vectors:       0.06 MB

     Dynamical RAM for          h,s,v(r/c):       0.02 MB

     Dynamical RAM for          <psi|beta>:       0.00 MB

     Dynamical RAM for                 psi:       0.04 MB

     Dynamical RAM for                hpsi:       0.04 MB

     Dynamical RAM for      wfcinit/wfcrot:       0.04 MB

     Estimated static dynamical RAM per process >       2.46 MB

     Estimated max dynamical RAM per process >       2.56 MB

     Estimated total dynamical RAM >      30.67 MB

     The potential is recalculated from file :
     ./LiF.save/charge-density

     Starting wfcs are    6 randomized atomic wfcs +    4 random wfcs

     Band Structure Calculation
     Davidson diagonalization with overlap

     Computing kpt #:     1  of   125
     total cpu time spent up to now is        0.5 secs

     Computing kpt #:     2  of   125
     total cpu time spent up to now is        0.5 secs

     Computing kpt #:     3  of   125
     total cpu time spent up to now is        0.5 secs

     Computing kpt #:     4  of   125
     total cpu time spent up to now is        0.6 secs

     Computing kpt #:     5  of   125
     total cpu time spent up to now is        0.6 secs

     Computing kpt #:     6  of   125
     total cpu time spent up to now is        0.6 secs

     Computing kpt #:     7  of   125
     total cpu time spent up to now is        0.7 secs

     Computing kpt #:     8  of   125
     total cpu time spent up to now is        0.7 secs

     Computing kpt #:     9  of   125
     total cpu time spent up to now is        0.7 secs

     Computing kpt #:    10  of   125
     total cpu time spent up to now is        0.7 secs

     Computing kpt #:    11  of   125
     total cpu time spent up to now is        0.7 secs

     Computing kpt #:    12  of   125
     total cpu time spent up to now is        0.7 secs

     Computing kpt #:    13  of   125
     total cpu time spent up to now is        0.8 secs

     Computing kpt #:    14  of   125
     total cpu time spent up to now is        0.8 secs

     Computing kpt #:    15  of   125
     total cpu time spent up to now is        0.8 secs

     Computing kpt #:    16  of   125
     total cpu time spent up to now is        0.8 secs

     Computing kpt #:    17  of   125
     total cpu time spent up to now is        0.8 secs

     Computing kpt #:    18  of   125
     total cpu time spent up to now is        0.8 secs

     Computing kpt #:    19  of   125
     total cpu time spent up to now is        0.9 secs

     Computing kpt #:    20  of   125
     total cpu time spent up to now is        0.9 secs

     Computing kpt #:    21  of   125
     total cpu time spent up to now is        0.9 secs

     Computing kpt #:    22  of   125
     total cpu time spent up to now is        0.9 secs

     Computing kpt #:    23  of   125
     total cpu time spent up to now is        0.9 secs

     Computing kpt #:    24  of   125
     total cpu time spent up to now is        0.9 secs

     Computing kpt #:    25  of   125
     total cpu time spent up to now is        0.9 secs

     Computing kpt #:    26  of   125
     total cpu time spent up to now is        0.9 secs

     Computing kpt #:    27  of   125
     total cpu time spent up to now is        1.0 secs

     Computing kpt #:    28  of   125
     total cpu time spent up to now is        1.0 secs

     Computing kpt #:    29  of   125
     total cpu time spent up to now is        1.0 secs

     Computing kpt #:    30  of   125
     total cpu time spent up to now is        1.0 secs

     Computing kpt #:    31  of   125
     total cpu time spent up to now is        1.0 secs

     Computing kpt #:    32  of   125
     total cpu time spent up to now is        1.0 secs

     Computing kpt #:    33  of   125
     total cpu time spent up to now is        1.0 secs

     Computing kpt #:    34  of   125
     total cpu time spent up to now is        1.0 secs

     Computing kpt #:    35  of   125
     total cpu time spent up to now is        1.1 secs

     Computing kpt #:    36  of   125
     total cpu time spent up to now is        1.1 secs

     Computing kpt #:    37  of   125
     total cpu time spent up to now is        1.1 secs

     Computing kpt #:    38  of   125
     total cpu time spent up to now is        1.1 secs

     Computing kpt #:    39  of   125
     total cpu time spent up to now is        1.1 secs

     Computing kpt #:    40  of   125
     total cpu time spent up to now is        1.1 secs

     Computing kpt #:    41  of   125
     total cpu time spent up to now is        1.1 secs

     Computing kpt #:    42  of   125
     total cpu time spent up to now is        1.2 secs

     Computing kpt #:    43  of   125
     total cpu time spent up to now is        1.2 secs

     Computing kpt #:    44  of   125
     total cpu time spent up to now is        1.2 secs

     Computing kpt #:    45  of   125
     total cpu time spent up to now is        1.2 secs

     Computing kpt #:    46  of   125
     total cpu time spent up to now is        1.2 secs

     Computing kpt #:    47  of   125
     total cpu time spent up to now is        1.2 secs

     Computing kpt #:    48  of   125
     total cpu time spent up to now is        1.2 secs

     Computing kpt #:    49  of   125
     total cpu time spent up to now is        1.3 secs

     Computing kpt #:    50  of   125
     total cpu time spent up to now is        1.3 secs

     Computing kpt #:    51  of   125
     total cpu time spent up to now is        1.3 secs

     Computing kpt #:    52  of   125
     total cpu time spent up to now is        1.3 secs

     Computing kpt #:    53  of   125
     total cpu time spent up to now is        1.3 secs

     Computing kpt #:    54  of   125
     total cpu time spent up to now is        1.3 secs

     Computing kpt #:    55  of   125
     total cpu time spent up to now is        1.3 secs

     Computing kpt #:    56  of   125
     total cpu time spent up to now is        1.4 secs

     Computing kpt #:    57  of   125
     total cpu time spent up to now is        1.4 secs

     Computing kpt #:    58  of   125
     total cpu time spent up to now is        1.4 secs

     Computing kpt #:    59  of   125
     total cpu time spent up to now is        1.4 secs

     Computing kpt #:    60  of   125
     total cpu time spent up to now is        1.4 secs

     Computing kpt #:    61  of   125
     total cpu time spent up to now is        1.4 secs

     Computing kpt #:    62  of   125
     total cpu time spent up to now is        1.4 secs

     Computing kpt #:    63  of   125
     total cpu time spent up to now is        1.5 secs

     Computing kpt #:    64  of   125
     total cpu time spent up to now is        1.5 secs

     Computing kpt #:    65  of   125
     total cpu time spent up to now is        1.5 secs

     Computing kpt #:    66  of   125
     total cpu time spent up to now is        1.5 secs

     Computing kpt #:    67  of   125
     total cpu time spent up to now is        1.5 secs

     Computing kpt #:    68  of   125
     total cpu time spent up to now is        1.5 secs

     Computing kpt #:    69  of   125
     total cpu time spent up to now is        1.5 secs

     Computing kpt #:    70  of   125
     total cpu time spent up to now is        1.6 secs

     Computing kpt #:    71  of   125
     total cpu time spent up to now is        1.6 secs

     Computing kpt #:    72  of   125
     total cpu time spent up to now is        1.6 secs

     Computing kpt #:    73  of   125
     total cpu time spent up to now is        1.6 secs

     Computing kpt #:    74  of   125
     total cpu time spent up to now is        1.6 secs

     Computing kpt #:    75  of   125
     total cpu time spent up to now is        1.6 secs

     Computing kpt #:    76  of   125
     total cpu time spent up to now is        1.7 secs

     Computing kpt #:    77  of   125
     total cpu time spent up to now is        1.7 secs

     Computing kpt #:    78  of   125
     total cpu time spent up to now is        1.7 secs

     Computing kpt #:    79  of   125
     total cpu time spent up to now is        1.7 secs

     Computing kpt #:    80  of   125
     total cpu time spent up to now is        1.7 secs

     Computing kpt #:    81  of   125
     total cpu time spent up to now is        1.8 secs

     Computing kpt #:    82  of   125
     total cpu time spent up to now is        1.8 secs

     Computing kpt #:    83  of   125
     total cpu time spent up to now is        1.8 secs

     Computing kpt #:    84  of   125
     total cpu time spent up to now is        1.8 secs

     Computing kpt #:    85  of   125
     total cpu time spent up to now is        1.8 secs

     Computing kpt #:    86  of   125
     total cpu time spent up to now is        1.8 secs

     Computing kpt #:    87  of   125
     total cpu time spent up to now is        1.8 secs

     Computing kpt #:    88  of   125
     total cpu time spent up to now is        1.8 secs

     Computing kpt #:    89  of   125
     total cpu time spent up to now is        1.9 secs

     Computing kpt #:    90  of   125
     total cpu time spent up to now is        1.9 secs

     Computing kpt #:    91  of   125
     total cpu time spent up to now is        1.9 secs

     Computing kpt #:    92  of   125
     total cpu time spent up to now is        1.9 secs

     Computing kpt #:    93  of   125
     total cpu time spent up to now is        1.9 secs

     Computing kpt #:    94  of   125
     total cpu time spent up to now is        1.9 secs

     Computing kpt #:    95  of   125
     total cpu time spent up to now is        1.9 secs

     Computing kpt #:    96  of   125
     total cpu time spent up to now is        1.9 secs

     Computing kpt #:    97  of   125
     total cpu time spent up to now is        2.0 secs

     Computing kpt #:    98  of   125
     total cpu time spent up to now is        2.0 secs

     Computing kpt #:    99  of   125
     total cpu time spent up to now is        2.0 secs

     Computing kpt #:   100  of   125
     total cpu time spent up to now is        2.0 secs

     Computing kpt #:   101  of   125
     total cpu time spent up to now is        2.0 secs

     Computing kpt #:   102  of   125
     total cpu time spent up to now is        2.0 secs

     Computing kpt #:   103  of   125
     total cpu time spent up to now is        2.0 secs

     Computing kpt #:   104  of   125
     total cpu time spent up to now is        2.0 secs

     Computing kpt #:   105  of   125
     total cpu time spent up to now is        2.1 secs

     Computing kpt #:   106  of   125
     total cpu time spent up to now is        2.1 secs

     Computing kpt #:   107  of   125
     total cpu time spent up to now is        2.1 secs

     Computing kpt #:   108  of   125
     total cpu time spent up to now is        2.1 secs

     Computing kpt #:   109  of   125
     total cpu time spent up to now is        2.1 secs

     Computing kpt #:   110  of   125
     total cpu time spent up to now is        2.1 secs

     Computing kpt #:   111  of   125
     total cpu time spent up to now is        2.1 secs

     Computing kpt #:   112  of   125
     total cpu time spent up to now is        2.2 secs

     Computing kpt #:   113  of   125
     total cpu time spent up to now is        2.2 secs

     Computing kpt #:   114  of   125
     total cpu time spent up to now is        2.2 secs

     Computing kpt #:   115  of   125
     total cpu time spent up to now is        2.2 secs

     Computing kpt #:   116  of   125
     total cpu time spent up to now is        2.2 secs

     Computing kpt #:   117  of   125
     total cpu time spent up to now is        2.2 secs

     Computing kpt #:   118  of   125
     total cpu time spent up to now is        2.2 secs

     Computing kpt #:   119  of   125
     total cpu time spent up to now is        2.2 secs

     Computing kpt #:   120  of   125
     total cpu time spent up to now is        2.3 secs

     Computing kpt #:   121  of   125
     total cpu time spent up to now is        2.3 secs

     Computing kpt #:   122  of   125
     total cpu time spent up to now is        2.3 secs

     Computing kpt #:   123  of   125
     total cpu time spent up to now is        2.3 secs

     Computing kpt #:   124  of   125
     total cpu time spent up to now is        2.3 secs

     Computing kpt #:   125  of   125
     total cpu time spent up to now is        2.3 secs

     ethr =  1.00E-12,  avg # of iterations = 20.0

     total cpu time spent up to now is        2.3 secs

     End of band structure calculation

          k = 0.0000 0.0000 0.0000 (  1411 PWs)   bands (ev):

   -39.5367 -19.1944   0.2220   0.2220   0.2220   8.7709  23.2614  23.2614
    23.2614  23.8577

     occupation numbers 
     1.0000   1.0000   1.0000   1.0000   1.0000   0.0000   0.0000   0.0000
     0.0000   0.0000

          k =-0.2000 0.2000-0.2000 (  1387 PWs)   bands (ev):

   -39.5163 -19.0569  -0.7342   0.1439   0.1439   9.6979  18.3394  20.6676
    20.6676  25.7211

     occupation numbers 
     1.0000   1.0000   1.0000   1.0000   1.0000   0.0000   0.0000   0.0000
     0.0000   0.0000

          k = 0.2000-0.2000-0.2000 (  1387 PWs)   bands (ev):

   -39.5163 -19.0569  -0.7342   0.1439   0.1439   9.6979  18.3394  20.6676
    20.6676  25.7211

     occupation numbers 
     1.0000   1.0000   1.0000   1.0000   1.0000   0.0000   0.0000   0.0000
     0.0000   0.0000

          k = 0.2000 0.2000 0.2000 (  1387 PWs)   bands (ev):

   -39.5163 -19.0569  -0.7342   0.1439   0.1439   9.6979  18.3394  20.6676
    20.6676  25.7211

     occupation numbers 
     1.0000   1.0000   1.0000   1.0000   1.0000   0.0000   0.0000   0.0000
     0.0000   0.0000

          k =-0.2000-0.2000 0.2000 (  1387 PWs)   bands (ev):

   -39.5163 -19.0569  -0.7342   0.1439   0.1439   9.6979  18.3394  20.6676
    20.6676  25.7211

     occupation numbers 
     1.0000   1.0000   1.0000   1.0000   1.0000   0.0000   0.0000   0.0000
     0.0000   0.0000

          k = 0.2000-0.2000 0.2000 (  1387 PWs)   bands (ev):

   -39.5163 -19.0569  -0.7342   0.1439   0.1439   9.6979  18.3394  20.6676
    20.6676  25.7211

     occupation numbers 
     1.0000   1.0000   1.0000   1.0000   1.0000   0.0000   0.0000   0.0000
     0.0000   0.0000

          k =-0.2000 0.2000 0.2000 (  1387 PWs)   bands (ev):

   -39.5163 -19.0569  -0.7342   0.1439   0.1439   9.6979  18.3394  20.6676
    20.6676  25.7211

     occupation numbers 
     1.0000   1.0000   1.0000   1.0000   1.0000   0.0000   0.0000   0.0000
     0.0000   0.0000

          k =-0.2000-0.2000-0.2000 (  1387 PWs)   bands (ev):

   -39.5163 -19.0569  -0.7342   0.1439   0.1439   9.6979  18.3394  20.6676
    20.6676  25.7211

     occupation numbers 
     1.0000   1.0000   1.0000   1.0000   1.0000   0.0000   0.0000   0.0000
     0.0000   0.0000

          k = 0.2000 0.2000-0.2000 (  1387 PWs)   bands (ev):

   -39.5163 -19.0569  -0.7342   0.1439   0.1439   9.6979  18.3394  20.6676
    20.6676  25.7211

     occupation numbers 
     1.0000   1.0000   1.0000   1.0000   1.0000   0.0000   0.0000   0.0000
     0.0000   0.0000

          k =-0.4000 0.4000-0.4000 (  1389 PWs)   bands (ev):

   -39.4834 -18.8191  -2.0298   0.0244   0.0244  10.4553  16.2874  18.6859
    18.6859  28.6583

     occupation numbers 
     1.0000   1.0000   1.0000   1.0000   1.0000   0.0000   0.0000   0.0000
     0.0000   0.0000

          k = 0.4000-0.4000-0.4000 (  1389 PWs)   bands (ev):

   -39.4834 -18.8191  -2.0298   0.0244   0.0244  10.4553  16.2874  18.6859
    18.6859  28.6583

     occupation numbers 
     1.0000   1.0000   1.0000   1.0000   1.0000   0.0000   0.0000   0.0000
     0.0000   0.0000

          k = 0.4000 0.4000 0.4000 (  1389 PWs)   bands (ev):

   -39.4834 -18.8191  -2.0298   0.0244   0.0244  10.4553  16.2874  18.6859
    18.6859  28.6583

     occupation numbers 
     1.0000   1.0000   1.0000   1.0000   1.0000   0.0000   0.0000   0.0000
     0.0000   0.0000

          k =-0.4000-0.4000 0.4000 (  1389 PWs)   bands (ev):

   -39.4834 -18.8191  -2.0298   0.0244   0.0244  10.4553  16.2874  18.6859
    18.6859  28.6583

     occupation numbers 
     1.0000   1.0000   1.0000   1.0000   1.0000   0.0000   0.0000   0.0000
     0.0000   0.0000

          k = 0.4000-0.4000 0.4000 (  1389 PWs)   bands (ev):

   -39.4834 -18.8191  -2.0298   0.0244   0.0244  10.4553  16.2874  18.6859
    18.6859  28.6583

     occupation numbers 
     1.0000   1.0000   1.0000   1.0000   1.0000   0.0000   0.0000   0.0000
     0.0000   0.0000

          k =-0.4000 0.4000 0.4000 (  1389 PWs)   bands (ev):

   -39.4834 -18.8191  -2.0298   0.0244   0.0244  10.4553  16.2874  18.6859
    18.6859  28.6583

     occupation numbers 
     1.0000   1.0000   1.0000   1.0000   1.0000   0.0000   0.0000   0.0000
     0.0000   0.0000

          k =-0.4000-0.4000-0.4000 (  1389 PWs)   bands (ev):

   -39.4834 -18.8191  -2.0298   0.0244   0.0244  10.4553  16.2874  18.6859
    18.6859  28.6583

     occupation numbers 
     1.0000   1.0000   1.0000   1.0000   1.0000   0.0000   0.0000   0.0000
     0.0000   0.0000

          k = 0.4000 0.4000-0.4000 (  1389 PWs)   bands (ev):

   -39.4834 -18.8191  -2.0298   0.0244   0.0244  10.4553  16.2874  18.6859
    18.6859  28.6583

     occupation numbers 
     1.0000   1.0000   1.0000   1.0000   1.0000   0.0000   0.0000   0.0000
     0.0000   0.0000

          k = 0.0000 0.4000 0.0000 (  1375 PWs)   bands (ev):

   -39.5101 -18.9983  -0.7306  -0.1215  -0.1215  10.2896  19.3496  20.0322
    20.3715  20.3715

     occupation numbers 
     1.0000   1.0000   1.0000   1.0000   1.0000   0.0000   0.0000   0.0000
     0.0000   0.0000

          k = 0.0000-0.4000 0.0000 (  1375 PWs)   bands (ev):

   -39.5101 -18.9983  -0.7306  -0.1215  -0.1215  10.2896  19.3496  20.0322
    20.3715  20.3715

     occupation numbers 
     1.0000   1.0000   1.0000   1.0000   1.0000   0.0000   0.0000   0.0000
     0.0000   0.0000

          k = 0.4000 0.0000 0.0000 (  1375 PWs)   bands (ev):

   -39.5101 -18.9983  -0.7306  -0.1215  -0.1215  10.2896  19.3496  20.0322
    20.3715  20.3715

     occupation numbers 
     1.0000   1.0000   1.0000   1.0000   1.0000   0.0000   0.0000   0.0000
     0.0000   0.0000

          k =-0.4000 0.0000 0.0000 (  1375 PWs)   bands (ev):

   -39.5101 -18.9983  -0.7306  -0.1215  -0.1215  10.2896  19.3496  20.0322
    20.3715  20.3715

     occupation numbers 
     1.0000   1.0000   1.0000   1.0000   1.0000   0.0000   0.0000   0.0000
     0.0000   0.0000

          k = 0.0000 0.0000 0.4000 (  1375 PWs)   bands (ev):

   -39.5101 -18.9983  -0.7306  -0.1215  -0.1215  10.2896  19.3496  20.0322
    20.3715  20.3715

     occupation numbers 
     1.0000   1.0000   1.0000   1.0000   1.0000   0.0000   0.0000   0.0000
     0.0000   0.0000

          k = 0.0000 0.0000-0.4000 (  1375 PWs)   bands (ev):

   -39.5101 -18.9983  -0.7306  -0.1215  -0.1215  10.2896  19.3496  20.0322
    20.3715  20.3715

     occupation numbers 
     1.0000   1.0000   1.0000   1.0000   1.0000   0.0000   0.0000   0.0000
     0.0000   0.0000

          k =-0.2000 0.6000-0.2000 (  1378 PWs)   bands (ev):

   -39.4822 -18.7684  -1.7860  -0.4866  -0.3020  11.6847  16.1342  18.5984
    19.3029  23.0102

     occupation numbers 
     1.0000   1.0000   1.0000   1.0000   1.0000   0.0000   0.0000   0.0000
     0.0000   0.0000

          k = 0.2000-0.6000-0.2000 (  1378 PWs)   bands (ev):

   -39.4822 -18.7684  -1.7860  -0.4866  -0.3020  11.6847  16.1342  18.5984
    19.3029  23.0102

     occupation numbers 
     1.0000   1.0000   1.0000   1.0000   1.0000   0.0000   0.0000   0.0000
     0.0000   0.0000

          k = 0.2000 0.6000 0.2000 (  1378 PWs)   bands (ev):

   -39.4822 -18.7684  -1.7860  -0.4866  -0.3020  11.6847  16.1342  18.5984
    19.3029  23.0102

     occupation numbers 
     1.0000   1.0000   1.0000   1.0000   1.0000   0.0000   0.0000   0.0000
     0.0000   0.0000

          k =-0.2000-0.6000 0.2000 (  1378 PWs)   bands (ev):

   -39.4822 -18.7684  -1.7860  -0.4866  -0.3020  11.6847  16.1342  18.5984
    19.3029  23.0102

     occupation numbers 
     1.0000   1.0000   1.0000   1.0000   1.0000   0.0000   0.0000   0.0000
     0.0000   0.0000

          k = 0.6000-0.2000 0.2000 (  1378 PWs)   bands (ev):

   -39.4822 -18.7684  -1.7860  -0.4866  -0.3020  11.6847  16.1342  18.5984
    19.3029  23.0102

     occupation numbers 
     1.0000   1.0000   1.0000   1.0000   1.0000   0.0000   0.0000   0.0000
     0.0000   0.0000

          k =-0.6000 0.2000 0.2000 (  1378 PWs)   bands (ev):

   -39.4822 -18.7684  -1.7860  -0.4866  -0.3020  11.6847  16.1342  18.5984
    19.3029  23.0102

     occupation numbers 
     1.0000   1.0000   1.0000   1.0000   1.0000   0.0000   0.0000   0.0000
     0.0000   0.0000

          k =-0.6000-0.2000-0.2000 (  1378 PWs)   bands (ev):

   -39.4822 -18.7684  -1.7860  -0.4866  -0.3020  11.6847  16.1342  18.5984
    19.3029  23.0102

     occupation numbers 
     1.0000   1.0000   1.0000   1.0000   1.0000   0.0000   0.0000   0.0000
     0.0000   0.0000

          k = 0.6000 0.2000-0.2000 (  1378 PWs)   bands (ev):

   -39.4822 -18.7684  -1.7860  -0.4866  -0.3020  11.6847  16.1342  18.5984
    19.3029  23.0102

     occupation numbers 
     1.0000   1.0000   1.0000   1.0000   1.0000   0.0000   0.0000   0.0000
     0.0000   0.0000

          k =-0.2000-0.6000-0.2000 (  1378 PWs)   bands (ev):

   -39.4822 -18.7684  -1.7860  -0.4866  -0.3020  11.6847  16.1342  18.5984
    19.3029  23.0102

     occupation numbers 
     1.0000   1.0000   1.0000   1.0000   1.0000   0.0000   0.0000   0.0000
     0.0000   0.0000

          k = 0.2000-0.6000 0.2000 (  1378 PWs)   bands (ev):

   -39.4822 -18.7684  -1.7860  -0.4866  -0.3020  11.6847  16.1342  18.5984
    19.3029  23.0102

     occupation numbers 
     1.0000   1.0000   1.0000   1.0000   1.0000   0.0000   0.0000   0.0000
     0.0000   0.0000

          k = 0.2000 0.6000-0.2000 (  1378 PWs)   bands (ev):

   -39.4822 -18.7684  -1.7860  -0.4866  -0.3020  11.6847  16.1342  18.5984
    19.3029  23.0102

     occupation numbers 
     1.0000   1.0000   1.0000   1.0000   1.0000   0.0000   0.0000   0.0000
     0.0000   0.0000

          k =-0.2000 0.6000 0.2000 (  1378 PWs)   bands (ev):

   -39.4822 -18.7684  -1.7860  -0.4866  -0.3020  11.6847  16.1342  18.5984
    19.3029  23.0102

     occupation numbers 
     1.0000   1.0000   1.0000   1.0000   1.0000   0.0000   0.0000   0.0000
     0.0000   0.0000

          k = 0.2000-0.2000 0.6000 (  1378 PWs)   bands (ev):

   -39.4822 -18.7684  -1.7860  -0.4866  -0.3020  11.6847  16.1342  18.5984
    19.3029  23.0102

     occupation numbers 
     1.0000   1.0000   1.0000   1.0000   1.0000   0.0000   0.0000   0.0000
     0.0000   0.0000

          k = 0.2000 0.2000-0.6000 (  1378 PWs)   bands (ev):

   -39.4822 -18.7684  -1.7860  -0.4866  -0.3020  11.6847  16.1342  18.5984
    19.3029  23.0102

     occupation numbers 
     1.0000   1.0000   1.0000   1.0000   1.0000   0.0000   0.0000   0.0000
     0.0000   0.0000

          k =-0.2000 0.2000 0.6000 (  1378 PWs)   bands (ev):

   -39.4822 -18.7684  -1.7860  -0.4866  -0.3020  11.6847  16.1342  18.5984
    19.3029  23.0102

     occupation numbers 
     1.0000   1.0000   1.0000   1.0000   1.0000   0.0000   0.0000   0.0000
     0.0000   0.0000

          k =-0.2000-0.2000-0.6000 (  1378 PWs)   bands (ev):

   -39.4822 -18.7684  -1.7860  -0.4866  -0.3020  11.6847  16.1342  18.5984
    19.3029  23.0102

     occupation numbers 
     1.0000   1.0000   1.0000   1.0000   1.0000   0.0000   0.0000   0.0000
     0.0000   0.0000

          k =-0.2000-0.2000 0.6000 (  1378 PWs)   bands (ev):

   -39.4822 -18.7684  -1.7860  -0.4866  -0.3020  11.6847  16.1342  18.5984
    19.3029  23.0102

     occupation numbers 
     1.0000   1.0000   1.0000   1.0000   1.0000   0.0000   0.0000   0.0000
     0.0000   0.0000

          k = 0.2000 0.2000 0.6000 (  1378 PWs)   bands (ev):

   -39.4822 -18.7684  -1.7860  -0.4866  -0.3020  11.6847  16.1342  18.5984
    19.3029  23.0102

     occupation numbers 
     1.0000   1.0000   1.0000   1.0000   1.0000   0.0000   0.0000   0.0000
     0.0000   0.0000

          k = 0.2000-0.2000-0.6000 (  1378 PWs)   bands (ev):

   -39.4822 -18.7684  -1.7860  -0.4866  -0.3020  11.6847  16.1342  18.5984
    19.3029  23.0102

     occupation numbers 
     1.0000   1.0000   1.0000   1.0000   1.0000   0.0000   0.0000   0.0000
     0.0000   0.0000

          k =-0.2000 0.2000-0.6000 (  1378 PWs)   bands (ev):

   -39.4822 -18.7684  -1.7860  -0.4866  -0.3020  11.6847  16.1342  18.5984
    19.3029  23.0102

     occupation numbers 
     1.0000   1.0000   1.0000   1.0000   1.0000   0.0000   0.0000   0.0000
     0.0000   0.0000

          k = 0.6000-0.2000-0.2000 (  1378 PWs)   bands (ev):

   -39.4822 -18.7684  -1.7860  -0.4866  -0.3020  11.6847  16.1342  18.5984
    19.3029  23.0102

     occupation numbers 
     1.0000   1.0000   1.0000   1.0000   1.0000   0.0000   0.0000   0.0000
     0.0000   0.0000

          k =-0.6000 0.2000-0.2000 (  1378 PWs)   bands (ev):

   -39.4822 -18.7684  -1.7860  -0.4866  -0.3020  11.6847  16.1342  18.5984
    19.3029  23.0102

     occupation numbers 
     1.0000   1.0000   1.0000   1.0000   1.0000   0.0000   0.0000   0.0000
     0.0000   0.0000

          k =-0.6000-0.2000 0.2000 (  1378 PWs)   bands (ev):

   -39.4822 -18.7684  -1.7860  -0.4866  -0.3020  11.6847  16.1342  18.5984
    19.3029  23.0102

     occupation numbers 
     1.0000   1.0000   1.0000   1.0000   1.0000   0.0000   0.0000   0.0000
     0.0000   0.0000

          k = 0.6000 0.2000 0.2000 (  1378 PWs)   bands (ev):

   -39.4822 -18.7684  -1.7860  -0.4866  -0.3020  11.6847  16.1342  18.5984
    19.3029  23.0102

     occupation numbers 
     1.0000   1.0000   1.0000   1.0000   1.0000   0.0000   0.0000   0.0000
     0.0000   0.0000

          k = 0.6000-0.2000 0.6000 (  1382 PWs)   bands (ev):

   -39.4712 -18.6831  -2.0339  -0.9056  -0.1580  11.8928  15.2958  18.5565
    18.6944  26.7472

     occupation numbers 
     1.0000   1.0000   1.0000   1.0000   1.0000   0.0000   0.0000   0.0000
     0.0000   0.0000

          k =-0.6000 0.2000 0.6000 (  1382 PWs)   bands (ev):

   -39.4712 -18.6831  -2.0339  -0.9056  -0.1580  11.8928  15.2958  18.5565
    18.6944  26.7472

     occupation numbers 
     1.0000   1.0000   1.0000   1.0000   1.0000   0.0000   0.0000   0.0000
     0.0000   0.0000

          k =-0.6000-0.2000-0.6000 (  1382 PWs)   bands (ev):

   -39.4712 -18.6831  -2.0339  -0.9056  -0.1580  11.8928  15.2958  18.5565
    18.6944  26.7472

     occupation numbers 
     1.0000   1.0000   1.0000   1.0000   1.0000   0.0000   0.0000   0.0000
     0.0000   0.0000

          k = 0.6000 0.2000-0.6000 (  1382 PWs)   bands (ev):

   -39.4712 -18.6831  -2.0339  -0.9056  -0.1580  11.8928  15.2958  18.5565
    18.6944  26.7472

     occupation numbers 
     1.0000   1.0000   1.0000   1.0000   1.0000   0.0000   0.0000   0.0000
     0.0000   0.0000

          k =-0.2000 0.6000-0.6000 (  1382 PWs)   bands (ev):

   -39.4712 -18.6831  -2.0339  -0.9056  -0.1580  11.8928  15.2958  18.5565
    18.6944  26.7472

     occupation numbers 
     1.0000   1.0000   1.0000   1.0000   1.0000   0.0000   0.0000   0.0000
     0.0000   0.0000

          k = 0.2000-0.6000-0.6000 (  1382 PWs)   bands (ev):

   -39.4712 -18.6831  -2.0339  -0.9056  -0.1580  11.8928  15.2958  18.5565
    18.6944  26.7472

     occupation numbers 
     1.0000   1.0000   1.0000   1.0000   1.0000   0.0000   0.0000   0.0000
     0.0000   0.0000

          k = 0.2000 0.6000 0.6000 (  1382 PWs)   bands (ev):

   -39.4712 -18.6831  -2.0339  -0.9056  -0.1580  11.8928  15.2958  18.5565
    18.6944  26.7472

     occupation numbers 
     1.0000   1.0000   1.0000   1.0000   1.0000   0.0000   0.0000   0.0000
     0.0000   0.0000

          k =-0.2000-0.6000 0.6000 (  1382 PWs)   bands (ev):

   -39.4712 -18.6831  -2.0339  -0.9056  -0.1580  11.8928  15.2958  18.5565
    18.6944  26.7472

     occupation numbers 
     1.0000   1.0000   1.0000   1.0000   1.0000   0.0000   0.0000   0.0000
     0.0000   0.0000

          k = 0.6000 0.2000 0.6000 (  1382 PWs)   bands (ev):

   -39.4712 -18.6831  -2.0339  -0.9056  -0.1580  11.8928  15.2958  18.5565
    18.6944  26.7472

     occupation numbers 
     1.0000   1.0000   1.0000   1.0000   1.0000   0.0000   0.0000   0.0000
     0.0000   0.0000

          k =-0.6000 0.2000-0.6000 (  1382 PWs)   bands (ev):

   -39.4712 -18.6831  -2.0339  -0.9056  -0.1580  11.8928  15.2958  18.5565
    18.6944  26.7472

     occupation numbers 
     1.0000   1.0000   1.0000   1.0000   1.0000   0.0000   0.0000   0.0000
     0.0000   0.0000

          k =-0.6000-0.2000 0.6000 (  1382 PWs)   bands (ev):

   -39.4712 -18.6831  -2.0339  -0.9056  -0.1580  11.8928  15.2958  18.5565
    18.6944  26.7472

     occupation numbers 
     1.0000   1.0000   1.0000   1.0000   1.0000   0.0000   0.0000   0.0000
     0.0000   0.0000

          k = 0.6000-0.2000-0.6000 (  1382 PWs)   bands (ev):

   -39.4712 -18.6831  -2.0339  -0.9056  -0.1580  11.8928  15.2958  18.5565
    18.6944  26.7472

     occupation numbers 
     1.0000   1.0000   1.0000   1.0000   1.0000   0.0000   0.0000   0.0000
     0.0000   0.0000

          k =-0.6000 0.6000-0.2000 (  1382 PWs)   bands (ev):

   -39.4712 -18.6831  -2.0339  -0.9056  -0.1580  11.8928  15.2958  18.5565
    18.6944  26.7472

     occupation numbers 
     1.0000   1.0000   1.0000   1.0000   1.0000   0.0000   0.0000   0.0000
     0.0000   0.0000

          k =-0.6000-0.6000 0.2000 (  1382 PWs)   bands (ev):

   -39.4712 -18.6831  -2.0339  -0.9056  -0.1580  11.8928  15.2958  18.5565
    18.6944  26.7472

     occupation numbers 
     1.0000   1.0000   1.0000   1.0000   1.0000   0.0000   0.0000   0.0000
     0.0000   0.0000

          k = 0.6000-0.6000-0.2000 (  1382 PWs)   bands (ev):

   -39.4712 -18.6831  -2.0339  -0.9056  -0.1580  11.8928  15.2958  18.5565
    18.6944  26.7472

     occupation numbers 
     1.0000   1.0000   1.0000   1.0000   1.0000   0.0000   0.0000   0.0000
     0.0000   0.0000

          k = 0.6000 0.6000 0.2000 (  1382 PWs)   bands (ev):

   -39.4712 -18.6831  -2.0339  -0.9056  -0.1580  11.8928  15.2958  18.5565
    18.6944  26.7472

     occupation numbers 
     1.0000   1.0000   1.0000   1.0000   1.0000   0.0000   0.0000   0.0000
     0.0000   0.0000

          k = 0.6000 0.6000-0.2000 (  1382 PWs)   bands (ev):

   -39.4712 -18.6831  -2.0339  -0.9056  -0.1580  11.8928  15.2958  18.5565
    18.6944  26.7472

     occupation numbers 
     1.0000   1.0000   1.0000   1.0000   1.0000   0.0000   0.0000   0.0000
     0.0000   0.0000

          k =-0.6000-0.6000-0.2000 (  1382 PWs)   bands (ev):

   -39.4712 -18.6831  -2.0339  -0.9056  -0.1580  11.8928  15.2958  18.5565
    18.6944  26.7472

     occupation numbers 
     1.0000   1.0000   1.0000   1.0000   1.0000   0.0000   0.0000   0.0000
     0.0000   0.0000

          k =-0.6000 0.6000 0.2000 (  1382 PWs)   bands (ev):

   -39.4712 -18.6831  -2.0339  -0.9056  -0.1580  11.8928  15.2958  18.5565
    18.6944  26.7472

     occupation numbers 
     1.0000   1.0000   1.0000   1.0000   1.0000   0.0000   0.0000   0.0000
     0.0000   0.0000

          k = 0.6000-0.6000 0.2000 (  1382 PWs)   bands (ev):

   -39.4712 -18.6831  -2.0339  -0.9056  -0.1580  11.8928  15.2958  18.5565
    18.6944  26.7472

     occupation numbers 
     1.0000   1.0000   1.0000   1.0000   1.0000   0.0000   0.0000   0.0000
     0.0000   0.0000

          k =-0.2000 0.6000 0.6000 (  1382 PWs)   bands (ev):

   -39.4712 -18.6831  -2.0339  -0.9056  -0.1580  11.8928  15.2958  18.5565
    18.6944  26.7472

     occupation numbers 
     1.0000   1.0000   1.0000   1.0000   1.0000   0.0000   0.0000   0.0000
     0.0000   0.0000

          k = 0.2000-0.6000 0.6000 (  1382 PWs)   bands (ev):

   -39.4712 -18.6831  -2.0339  -0.9056  -0.1580  11.8928  15.2958  18.5565
    18.6944  26.7472

     occupation numbers 
     1.0000   1.0000   1.0000   1.0000   1.0000   0.0000   0.0000   0.0000
     0.0000   0.0000

          k = 0.2000 0.6000-0.6000 (  1382 PWs)   bands (ev):

   -39.4712 -18.6831  -2.0339  -0.9056  -0.1580  11.8928  15.2958  18.5565
    18.6944  26.7472

     occupation numbers 
     1.0000   1.0000   1.0000   1.0000   1.0000   0.0000   0.0000   0.0000
     0.0000   0.0000

          k =-0.2000-0.6000-0.6000 (  1382 PWs)   bands (ev):

   -39.4712 -18.6831  -2.0339  -0.9056  -0.1580  11.8928  15.2958  18.5565
    18.6944  26.7472

     occupation numbers 
     1.0000   1.0000   1.0000   1.0000   1.0000   0.0000   0.0000   0.0000
     0.0000   0.0000

          k = 0.4000 0.0000 0.4000 (  1384 PWs)   bands (ev):

   -39.4923 -18.8700  -1.3426  -0.6196   0.1192  10.9221  16.2420  19.2599
    19.4588  26.7338

     occupation numbers 
     1.0000   1.0000   1.0000   1.0000   1.0000   0.0000   0.0000   0.0000
     0.0000   0.0000

          k =-0.4000 0.0000 0.4000 (  1384 PWs)   bands (ev):

   -39.4923 -18.8700  -1.3426  -0.6196   0.1192  10.9221  16.2420  19.2599
    19.4588  26.7338

     occupation numbers 
     1.0000   1.0000   1.0000   1.0000   1.0000   0.0000   0.0000   0.0000
     0.0000   0.0000

          k =-0.4000 0.0000-0.4000 (  1384 PWs)   bands (ev):

   -39.4923 -18.8700  -1.3426  -0.6196   0.1192  10.9221  16.2420  19.2599
    19.4588  26.7338

     occupation numbers 
     1.0000   1.0000   1.0000   1.0000   1.0000   0.0000   0.0000   0.0000
     0.0000   0.0000

          k = 0.4000 0.0000-0.4000 (  1384 PWs)   bands (ev):

   -39.4923 -18.8700  -1.3426  -0.6196   0.1192  10.9221  16.2420  19.2599
    19.4588  26.7338

     occupation numbers 
     1.0000   1.0000   1.0000   1.0000   1.0000   0.0000   0.0000   0.0000
     0.0000   0.0000

          k = 0.0000 0.4000-0.4000 (  1384 PWs)   bands (ev):

   -39.4923 -18.8700  -1.3426  -0.6196   0.1192  10.9221  16.2420  19.2599
    19.4588  26.7338

     occupation numbers 
     1.0000   1.0000   1.0000   1.0000   1.0000   0.0000   0.0000   0.0000
     0.0000   0.0000

          k = 0.0000-0.4000-0.4000 (  1384 PWs)   bands (ev):

   -39.4923 -18.8700  -1.3426  -0.6196   0.1192  10.9221  16.2420  19.2599
    19.4588  26.7338

     occupation numbers 
     1.0000   1.0000   1.0000   1.0000   1.0000   0.0000   0.0000   0.0000
     0.0000   0.0000

          k = 0.0000 0.4000 0.4000 (  1384 PWs)   bands (ev):

   -39.4923 -18.8700  -1.3426  -0.6196   0.1192  10.9221  16.2420  19.2599
    19.4588  26.7338

     occupation numbers 
     1.0000   1.0000   1.0000   1.0000   1.0000   0.0000   0.0000   0.0000
     0.0000   0.0000

          k = 0.0000-0.4000 0.4000 (  1384 PWs)   bands (ev):

   -39.4923 -18.8700  -1.3426  -0.6196   0.1192  10.9221  16.2420  19.2599
    19.4588  26.7338

     occupation numbers 
     1.0000   1.0000   1.0000   1.0000   1.0000   0.0000   0.0000   0.0000
     0.0000   0.0000

          k =-0.4000 0.4000 0.0000 (  1384 PWs)   bands (ev):

   -39.4923 -18.8700  -1.3426  -0.6196   0.1192  10.9221  16.2420  19.2599
    19.4588  26.7338

     occupation numbers 
     1.0000   1.0000   1.0000   1.0000   1.0000   0.0000   0.0000   0.0000
     0.0000   0.0000

          k =-0.4000-0.4000 0.0000 (  1384 PWs)   bands (ev):

   -39.4923 -18.8700  -1.3426  -0.6196   0.1192  10.9221  16.2420  19.2599
    19.4588  26.7338

     occupation numbers 
     1.0000   1.0000   1.0000   1.0000   1.0000   0.0000   0.0000   0.0000
     0.0000   0.0000

          k = 0.4000-0.4000 0.0000 (  1384 PWs)   bands (ev):

   -39.4923 -18.8700  -1.3426  -0.6196   0.1192  10.9221  16.2420  19.2599
    19.4588  26.7338

     occupation numbers 
     1.0000   1.0000   1.0000   1.0000   1.0000   0.0000   0.0000   0.0000
     0.0000   0.0000

          k = 0.4000 0.4000 0.0000 (  1384 PWs)   bands (ev):

   -39.4923 -18.8700  -1.3426  -0.6196   0.1192  10.9221  16.2420  19.2599
    19.4588  26.7338

     occupation numbers 
     1.0000   1.0000   1.0000   1.0000   1.0000   0.0000   0.0000   0.0000
     0.0000   0.0000

          k = 0.0000 0.8000 0.0000 (  1367 PWs)   bands (ev):

   -39.4693 -18.5972  -2.4117  -0.6587  -0.6587  13.4754  16.5134  17.5161
    19.6304  19.6304

     occupation numbers 
     1.0000   1.0000   1.0000   1.0000   1.0000   0.0000   0.0000   0.0000
     0.0000   0.0000

          k = 0.0000-0.8000 0.0000 (  1367 PWs)   bands (ev):

   -39.4693 -18.5972  -2.4117  -0.6587  -0.6587  13.4754  16.5134  17.5161
    19.6304  19.6304

     occupation numbers 
     1.0000   1.0000   1.0000   1.0000   1.0000   0.0000   0.0000   0.0000
     0.0000   0.0000

          k = 0.8000 0.0000 0.0000 (  1367 PWs)   bands (ev):

   -39.4693 -18.5972  -2.4117  -0.6587  -0.6587  13.4754  16.5134  17.5161
    19.6304  19.6304

     occupation numbers 
     1.0000   1.0000   1.0000   1.0000   1.0000   0.0000   0.0000   0.0000
     0.0000   0.0000

          k =-0.8000 0.0000 0.0000 (  1367 PWs)   bands (ev):

   -39.4693 -18.5972  -2.4117  -0.6587  -0.6587  13.4754  16.5134  17.5161
    19.6304  19.6304

     occupation numbers 
     1.0000   1.0000   1.0000   1.0000   1.0000   0.0000   0.0000   0.0000
     0.0000   0.0000

          k = 0.0000 0.0000 0.8000 (  1367 PWs)   bands (ev):

   -39.4693 -18.5972  -2.4117  -0.6587  -0.6587  13.4754  16.5134  17.5161
    19.6304  19.6304

     occupation numbers 
     1.0000   1.0000   1.0000   1.0000   1.0000   0.0000   0.0000   0.0000
     0.0000   0.0000

          k = 0.0000 0.0000-0.8000 (  1367 PWs)   bands (ev):

   -39.4693 -18.5972  -2.4117  -0.6587  -0.6587  13.4754  16.5134  17.5161
    19.6304  19.6304

     occupation numbers 
     1.0000   1.0000   1.0000   1.0000   1.0000   0.0000   0.0000   0.0000
     0.0000   0.0000

          k = 0.8000 0.0000 0.8000 (  1374 PWs)   bands (ev):

   -39.4625 -18.5416  -2.3911  -1.1416  -0.5762  14.3868  14.6411  17.6099
    19.2375  21.9513

     occupation numbers 
     1.0000   1.0000   1.0000   1.0000   1.0000   0.0000   0.0000   0.0000
     0.0000   0.0000

          k =-0.8000 0.0000 0.8000 (  1374 PWs)   bands (ev):

   -39.4625 -18.5416  -2.3911  -1.1416  -0.5762  14.3868  14.6411  17.6099
    19.2375  21.9513

     occupation numbers 
     1.0000   1.0000   1.0000   1.0000   1.0000   0.0000   0.0000   0.0000
     0.0000   0.0000

          k =-0.8000 0.0000-0.8000 (  1374 PWs)   bands (ev):

   -39.4625 -18.5416  -2.3911  -1.1416  -0.5762  14.3868  14.6411  17.6099
    19.2375  21.9513

     occupation numbers 
     1.0000   1.0000   1.0000   1.0000   1.0000   0.0000   0.0000   0.0000
     0.0000   0.0000

          k = 0.8000 0.0000-0.8000 (  1374 PWs)   bands (ev):

   -39.4625 -18.5416  -2.3911  -1.1416  -0.5762  14.3868  14.6411  17.6099
    19.2375  21.9513

     occupation numbers 
     1.0000   1.0000   1.0000   1.0000   1.0000   0.0000   0.0000   0.0000
     0.0000   0.0000

          k = 0.0000 0.8000-0.8000 (  1374 PWs)   bands (ev):

   -39.4625 -18.5416  -2.3911  -1.1416  -0.5762  14.3868  14.6411  17.6099
    19.2375  21.9513

     occupation numbers 
     1.0000   1.0000   1.0000   1.0000   1.0000   0.0000   0.0000   0.0000
     0.0000   0.0000

          k = 0.0000-0.8000-0.8000 (  1374 PWs)   bands (ev):

   -39.4625 -18.5416  -2.3911  -1.1416  -0.5762  14.3868  14.6411  17.6099
    19.2375  21.9513

     occupation numbers 
     1.0000   1.0000   1.0000   1.0000   1.0000   0.0000   0.0000   0.0000
     0.0000   0.0000

          k = 0.0000 0.8000 0.8000 (  1374 PWs)   bands (ev):

   -39.4625 -18.5416  -2.3911  -1.1416  -0.5762  14.3868  14.6411  17.6099
    19.2375  21.9513

     occupation numbers 
     1.0000   1.0000   1.0000   1.0000   1.0000   0.0000   0.0000   0.0000
     0.0000   0.0000

          k = 0.0000-0.8000 0.8000 (  1374 PWs)   bands (ev):

   -39.4625 -18.5416  -2.3911  -1.1416  -0.5762  14.3868  14.6411  17.6099
    19.2375  21.9513

     occupation numbers 
     1.0000   1.0000   1.0000   1.0000   1.0000   0.0000   0.0000   0.0000
     0.0000   0.0000

          k =-0.8000 0.8000 0.0000 (  1374 PWs)   bands (ev):

   -39.4625 -18.5416  -2.3911  -1.1416  -0.5762  14.3868  14.6411  17.6099
    19.2375  21.9513

     occupation numbers 
     1.0000   1.0000   1.0000   1.0000   1.0000   0.0000   0.0000   0.0000
     0.0000   0.0000

          k =-0.8000-0.8000 0.0000 (  1374 PWs)   bands (ev):

   -39.4625 -18.5416  -2.3911  -1.1416  -0.5762  14.3868  14.6411  17.6099
    19.2375  21.9513

     occupation numbers 
     1.0000   1.0000   1.0000   1.0000   1.0000   0.0000   0.0000   0.0000
     0.0000   0.0000

          k = 0.8000-0.8000 0.0000 (  1374 PWs)   bands (ev):

   -39.4625 -18.5416  -2.3911  -1.1416  -0.5762  14.3868  14.6411  17.6099
    19.2375  21.9513

     occupation numbers 
     1.0000   1.0000   1.0000   1.0000   1.0000   0.0000   0.0000   0.0000
     0.0000   0.0000

          k = 0.8000 0.8000 0.0000 (  1374 PWs)   bands (ev):

   -39.4625 -18.5416  -2.3911  -1.1416  -0.5762  14.3868  14.6411  17.6099
    19.2375  21.9513

     occupation numbers 
     1.0000   1.0000   1.0000   1.0000   1.0000   0.0000   0.0000   0.0000
     0.0000   0.0000

          k = 0.6000-0.2000 1.0000 (  1382 PWs)   bands (ev):

   -39.4659 -18.5964  -1.9723  -1.3731  -0.4394  13.4606  14.9614  17.7610
    18.8074  24.8524

     occupation numbers 
     1.0000   1.0000   1.0000   1.0000   1.0000   0.0000   0.0000   0.0000
     0.0000   0.0000

          k =-0.6000 0.2000 1.0000 (  1382 PWs)   bands (ev):

   -39.4659 -18.5964  -1.9723  -1.3731  -0.4394  13.4606  14.9614  17.7610
    18.8074  24.8524

     occupation numbers 
     1.0000   1.0000   1.0000   1.0000   1.0000   0.0000   0.0000   0.0000
     0.0000   0.0000

          k =-0.6000-0.2000-1.0000 (  1382 PWs)   bands (ev):

   -39.4659 -18.5964  -1.9723  -1.3731  -0.4394  13.4606  14.9614  17.7610
    18.8074  24.8524

     occupation numbers 
     1.0000   1.0000   1.0000   1.0000   1.0000   0.0000   0.0000   0.0000
     0.0000   0.0000

          k = 0.6000 0.2000-1.0000 (  1382 PWs)   bands (ev):

   -39.4659 -18.5964  -1.9723  -1.3731  -0.4394  13.4606  14.9614  17.7610
    18.8074  24.8524

     occupation numbers 
     1.0000   1.0000   1.0000   1.0000   1.0000   0.0000   0.0000   0.0000
     0.0000   0.0000

          k =-0.2000 0.6000-1.0000 (  1382 PWs)   bands (ev):

   -39.4659 -18.5964  -1.9723  -1.3731  -0.4394  13.4606  14.9614  17.7610
    18.8074  24.8524

     occupation numbers 
     1.0000   1.0000   1.0000   1.0000   1.0000   0.0000   0.0000   0.0000
     0.0000   0.0000

          k = 0.2000-0.6000-1.0000 (  1382 PWs)   bands (ev):

   -39.4659 -18.5964  -1.9723  -1.3731  -0.4394  13.4606  14.9614  17.7610
    18.8074  24.8524

     occupation numbers 
     1.0000   1.0000   1.0000   1.0000   1.0000   0.0000   0.0000   0.0000
     0.0000   0.0000

          k = 0.2000 0.6000 1.0000 (  1382 PWs)   bands (ev):

   -39.4659 -18.5964  -1.9723  -1.3731  -0.4394  13.4606  14.9614  17.7610
    18.8074  24.8524

     occupation numbers 
     1.0000   1.0000   1.0000   1.0000   1.0000   0.0000   0.0000   0.0000
     0.0000   0.0000

          k =-0.2000-0.6000 1.0000 (  1382 PWs)   bands (ev):

   -39.4659 -18.5964  -1.9723  -1.3731  -0.4394  13.4606  14.9614  17.7610
    18.8074  24.8524

     occupation numbers 
     1.0000   1.0000   1.0000   1.0000   1.0000   0.0000   0.0000   0.0000
     0.0000   0.0000

          k = 1.0000 0.2000 0.6000 (  1382 PWs)   bands (ev):

   -39.4659 -18.5964  -1.9723  -1.3731  -0.4394  13.4606  14.9614  17.7610
    18.8074  24.8524

     occupation numbers 
     1.0000   1.0000   1.0000   1.0000   1.0000   0.0000   0.0000   0.0000
     0.0000   0.0000

          k =-1.0000 0.2000-0.6000 (  1382 PWs)   bands (ev):

   -39.4659 -18.5964  -1.9723  -1.3731  -0.4394  13.4606  14.9614  17.7610
    18.8074  24.8524

     occupation numbers 
     1.0000   1.0000   1.0000   1.0000   1.0000   0.0000   0.0000   0.0000
     0.0000   0.0000

          k =-1.0000-0.2000 0.6000 (  1382 PWs)   bands (ev):

   -39.4659 -18.5964  -1.9723  -1.3731  -0.4394  13.4606  14.9614  17.7610
    18.8074  24.8524

     occupation numbers 
     1.0000   1.0000   1.0000   1.0000   1.0000   0.0000   0.0000   0.0000
     0.0000   0.0000

          k = 1.0000-0.2000-0.6000 (  1382 PWs)   bands (ev):

   -39.4659 -18.5964  -1.9723  -1.3731  -0.4394  13.4606  14.9614  17.7610
    18.8074  24.8524

     occupation numbers 
     1.0000   1.0000   1.0000   1.0000   1.0000   0.0000   0.0000   0.0000
     0.0000   0.0000

          k =-0.6000 1.0000-0.2000 (  1382 PWs)   bands (ev):

   -39.4659 -18.5964  -1.9723  -1.3731  -0.4394  13.4606  14.9614  17.7610
    18.8074  24.8524

     occupation numbers 
     1.0000   1.0000   1.0000   1.0000   1.0000   0.0000   0.0000   0.0000
     0.0000   0.0000

          k =-0.6000-1.0000 0.2000 (  1382 PWs)   bands (ev):

   -39.4659 -18.5964  -1.9723  -1.3731  -0.4394  13.4606  14.9614  17.7610
    18.8074  24.8524

     occupation numbers 
     1.0000   1.0000   1.0000   1.0000   1.0000   0.0000   0.0000   0.0000
     0.0000   0.0000

          k = 0.6000-1.0000-0.2000 (  1382 PWs)   bands (ev):

   -39.4659 -18.5964  -1.9723  -1.3731  -0.4394  13.4606  14.9614  17.7610
    18.8074  24.8524

     occupation numbers 
     1.0000   1.0000   1.0000   1.0000   1.0000   0.0000   0.0000   0.0000
     0.0000   0.0000

          k = 0.6000 1.0000 0.2000 (  1382 PWs)   bands (ev):

   -39.4659 -18.5964  -1.9723  -1.3731  -0.4394  13.4606  14.9614  17.7610
    18.8074  24.8524

     occupation numbers 
     1.0000   1.0000   1.0000   1.0000   1.0000   0.0000   0.0000   0.0000
     0.0000   0.0000

          k = 1.0000 0.6000-0.2000 (  1382 PWs)   bands (ev):

   -39.4659 -18.5964  -1.9723  -1.3731  -0.4394  13.4606  14.9614  17.7610
    18.8074  24.8524

     occupation numbers 
     1.0000   1.0000   1.0000   1.0000   1.0000   0.0000   0.0000   0.0000
     0.0000   0.0000

          k =-1.0000-0.6000-0.2000 (  1382 PWs)   bands (ev):

   -39.4659 -18.5964  -1.9723  -1.3731  -0.4394  13.4606  14.9614  17.7610
    18.8074  24.8524

     occupation numbers 
     1.0000   1.0000   1.0000   1.0000   1.0000   0.0000   0.0000   0.0000
     0.0000   0.0000

          k =-1.0000 0.6000 0.2000 (  1382 PWs)   bands (ev):

   -39.4659 -18.5964  -1.9723  -1.3731  -0.4394  13.4606  14.9614  17.7610
    18.8074  24.8524

     occupation numbers 
     1.0000   1.0000   1.0000   1.0000   1.0000   0.0000   0.0000   0.0000
     0.0000   0.0000

          k = 1.0000-0.6000 0.2000 (  1382 PWs)   bands (ev):

   -39.4659 -18.5964  -1.9723  -1.3731  -0.4394  13.4606  14.9614  17.7610
    18.8074  24.8524

     occupation numbers 
     1.0000   1.0000   1.0000   1.0000   1.0000   0.0000   0.0000   0.0000
     0.0000   0.0000

          k =-0.2000 1.0000 0.6000 (  1382 PWs)   bands (ev):

   -39.4659 -18.5964  -1.9723  -1.3731  -0.4394  13.4606  14.9614  17.7610
    18.8074  24.8524

     occupation numbers 
     1.0000   1.0000   1.0000   1.0000   1.0000   0.0000   0.0000   0.0000
     0.0000   0.0000

          k = 0.2000-1.0000 0.6000 (  1382 PWs)   bands (ev):

   -39.4659 -18.5964  -1.9723  -1.3731  -0.4394  13.4606  14.9614  17.7610
    18.8074  24.8524

     occupation numbers 
     1.0000   1.0000   1.0000   1.0000   1.0000   0.0000   0.0000   0.0000
     0.0000   0.0000

          k = 0.2000 1.0000-0.6000 (  1382 PWs)   bands (ev):

   -39.4659 -18.5964  -1.9723  -1.3731  -0.4394  13.4606  14.9614  17.7610
    18.8074  24.8524

     occupation numbers 
     1.0000   1.0000   1.0000   1.0000   1.0000   0.0000   0.0000   0.0000
     0.0000   0.0000

          k =-0.2000-1.0000-0.6000 (  1382 PWs)   bands (ev):

   -39.4659 -18.5964  -1.9723  -1.3731  -0.4394  13.4606  14.9614  17.7610
    18.8074  24.8524

     occupation numbers 
     1.0000   1.0000   1.0000   1.0000   1.0000   0.0000   0.0000   0.0000
     0.0000   0.0000

     highest occupied, lowest unoccupied level (ev):     0.2220    8.7709

     Writing all to output data dir ./LiF.save/

     init_run     :      0.15s CPU      0.18s WALL (       1 calls)
     electrons    :      1.72s CPU      1.87s WALL (       1 calls)

     Called by init_run:
     wfcinit      :      0.00s CPU      0.00s WALL (       1 calls)
     wfcinit:atom :      0.00s CPU      0.00s WALL (     125 calls)
     wfcinit:wfcr :      0.11s CPU      0.11s WALL (     125 calls)
     potinit      :      0.00s CPU      0.02s WALL (       1 calls)
     hinit0       :      0.13s CPU      0.14s WALL (       1 calls)

     Called by electrons:
     c_bands      :      1.72s CPU      1.87s WALL (       1 calls)
     v_of_rho     :      0.00s CPU      0.00s WALL (       1 calls)
     v_h          :      0.00s CPU      0.00s WALL (       1 calls)
     v_xc         :      0.00s CPU      0.00s WALL (       1 calls)

     Called by c_bands:
     init_us_2    :      0.00s CPU      0.01s WALL (     125 calls)
     init_us_2:cp :      0.00s CPU      0.01s WALL (     125 calls)
     cegterg      :      1.56s CPU      1.64s WALL (     161 calls)

     Called by sum_band:

     Called by *egterg:
     cdiaghg      :      0.34s CPU      0.35s WALL (    2623 calls)
     cegterg:over :      0.10s CPU      0.11s WALL (    2498 calls)
     cegterg:upda :      0.02s CPU      0.02s WALL (    2498 calls)
     cegterg:last :      0.03s CPU      0.03s WALL (    1540 calls)
     h_psi        :      1.11s CPU      1.17s WALL (    2784 calls)
     g_psi        :      0.01s CPU      0.01s WALL (    2498 calls)

     Called by h_psi:
     h_psi:calbec :      0.07s CPU      0.07s WALL (    2784 calls)
     vloc_psi     :      1.01s CPU      1.06s WALL (    2784 calls)
     add_vuspsi   :      0.02s CPU      0.02s WALL (    2784 calls)

     General routines
     calbec       :      0.06s CPU      0.07s WALL (    2784 calls)
     fft          :      0.12s CPU      0.13s WALL (       4 calls)
     fftw         :      0.91s CPU      0.96s WALL (   34038 calls)
     davcio       :      0.00s CPU      0.06s WALL (     250 calls)

     Parallel routines

     PWSCF        :      2.33s CPU      3.08s WALL


   This run was terminated on:  13:39:31   1Aug2024            

=------------------------------------------------------------------------------=
   JOB DONE.
=------------------------------------------------------------------------------=
