File written on 30Jul2024 at 13:47:03 

calc_only_A  :  F

begin real_lattice
  -2.0382520   0.0000000   2.0382520
   0.0000000   2.0382520   2.0382520
  -2.0382520   2.0382520   0.0000000
end real_lattice

begin recip_lattice
  -1.5413171  -1.5413171   1.5413171
   1.5413171   1.5413171   1.5413171
  -1.5413171   1.5413171  -1.5413171
end recip_lattice

begin kpoints
    27
   -0.00000000    0.00000000    0.00000000
   -0.00000000    0.00000000    0.33333333
   -0.33333333   -0.33333333   -0.33333333
   -0.00000000    0.33333333    0.00000000
    0.33333333    0.00000000    0.00000000
   -0.00000000    0.00000000   -0.33333333
    0.33333333    0.33333333    0.33333333
   -0.00000000   -0.33333333    0.00000000
   -0.33333333    0.00000000    0.00000000
   -0.00000000    0.33333333    0.33333333
   -0.00000000   -0.33333333   -0.33333333
   -0.33333333    0.00000000   -0.33333333
    0.33333333    0.00000000    0.33333333
    0.33333333    0.33333333    0.00000000
   -0.33333333   -0.33333333    0.00000000
   -0.00000000    0.33333333   -0.33333333
    0.66666667    0.33333333    0.33333333
   -0.00000000   -0.33333333    0.33333333
   -0.66666667   -0.33333333   -0.33333333
   -0.33333333    0.00000000    0.33333333
   -0.33333333   -0.66666667   -0.33333333
    0.33333333    0.66666667    0.33333333
    0.33333333    0.00000000   -0.33333333
    0.33333333    0.33333333    0.66666667
    0.33333333   -0.33333333    0.00000000
   -0.33333333   -0.33333333   -0.66666667
   -0.33333333    0.33333333    0.00000000
end kpoints

begin projections
     8
   0.00000    0.00000    0.00000     0  1  1
    0.0000000  0.0000000  1.0000000   1.0000000  0.0000000  0.0000000    1.00
   0.00000    0.00000    0.00000     1  1  1
    0.0000000  0.0000000  1.0000000   1.0000000  0.0000000  0.0000000    1.00
   0.00000    0.00000    0.00000     1  2  1
    0.0000000  0.0000000  1.0000000   1.0000000  0.0000000  0.0000000    1.00
   0.00000    0.00000    0.00000     1  3  1
    0.0000000  0.0000000  1.0000000   1.0000000  0.0000000  0.0000000    1.00
   0.50000   -0.50000   -0.50000     0  1  1
    0.0000000  0.0000000  1.0000000   1.0000000  0.0000000  0.0000000    1.00
   0.50000   -0.50000   -0.50000     1  1  1
    0.0000000  0.0000000  1.0000000   1.0000000  0.0000000  0.0000000    1.00
   0.50000   -0.50000   -0.50000     1  2  1
    0.0000000  0.0000000  1.0000000   1.0000000  0.0000000  0.0000000    1.00
   0.50000   -0.50000   -0.50000     1  3  1
    0.0000000  0.0000000  1.0000000   1.0000000  0.0000000  0.0000000    1.00
end projections

begin nnkpts
   8
     1     2      0   0   0
     1     3      0   0   0
     1     4      0   0   0
     1     5      0   0   0
     1     6      0   0   0
     1     7      0   0   0
     1     8      0   0   0
     1     9      0   0   0
     2     1      0   0   0
     2    10      0   0   0
     2    13      0   0   0
     2    15      0   0   0
     2    18      0   0   0
     2    20      0   0   0
     2    24      0   0   0
     2     6      0   0   1
     3     1      0   0   0
     3    11      0   0   0
     3    12      0   0   0
     3    15      0   0   0
     3    19      0   0   0
     3    21      0   0   0
     3    26      0   0   0
     3     7     -1  -1  -1
     4     1      0   0   0
     4    10      0   0   0
     4    12      0   0   0
     4    14      0   0   0
     4    16      0   0   0
     4    22      0   0   0
     4    27      0   0   0
     4     8      0   1   0
     5     1      0   0   0
     5    11      0   0   0
     5    13      0   0   0
     5    14      0   0   0
     5    17      0   0   0
     5    23      0   0   0
     5    25      0   0   0
     5     9      1   0   0
     6     1      0   0   0
     6    11      0   0   0
     6    12      0   0   0
     6    14      0   0   0
     6    16      0   0   0
     6    23      0   0   0
     6    26      0   0   0
     6     2      0   0  -1
     7     1      0   0   0
     7    10      0   0   0
     7    13      0   0   0
     7    14      0   0   0
     7    17      0   0   0
     7    22      0   0   0
     7    24      0   0   0
     7     3      1   1   1
     8     1      0   0   0
     8    11      0   0   0
     8    13      0   0   0
     8    15      0   0   0
     8    18      0   0   0
     8    21      0   0   0
     8    25      0   0   0
     8     4      0  -1   0
     9     1      0   0   0
     9    10      0   0   0
     9    12      0   0   0
     9    15      0   0   0
     9    19      0   0   0
     9    20      0   0   0
     9    27      0   0   0
     9     5     -1   0   0
    10     2      0   0   0
    10     4      0   0   0
    10     7      0   0   0
    10     9      0   0   0
    10    19      1   1   1
    10    18      0   1   0
    10    16      0   0   1
    10    17     -1   0   0
    11     3      0   0   0
    11     5      0   0   0
    11     6      0   0   0
    11     8      0   0   0
    11    19      1   0   0
    11    18      0   0  -1
    11    16      0  -1   0
    11    17     -1  -1  -1
    12     3      0   0   0
    12     4      0   0   0
    12     6      0   0   0
    12     9      0   0   0
    12    21      0   1   0
    12    20      0   0  -1
    12    23     -1   0   0
    12    22     -1  -1  -1
    13     2      0   0   0
    13     5      0   0   0
    13     7      0   0   0
    13     8      0   0   0
    13    21      1   1   1
    13    20      1   0   0
    13    23      0   0   1
    13    22      0  -1   0
    14     4      0   0   0
    14     5      0   0   0
    14     6      0   0   0
    14     7      0   0   0
    14    26      1   1   1
    14    27      1   0   0
    14    25      0   1   0
    14    24      0   0  -1
    15     2      0   0   0
    15     3      0   0   0
    15     8      0   0   0
    15     9      0   0   0
    15    26      0   0   1
    15    27      0  -1   0
    15    25     -1   0   0
    15    24     -1  -1  -1
    16     4      0   0   0
    16     6      0   0   0
    16    11      0   1   0
    16    21      0   1   0
    16    25      0   1   0
    16    10      0   0  -1
    16    20      0   0  -1
    16    24      0   0  -1
    17     5      0   0   0
    17     7      0   0   0
    17    11      1   1   1
    17    21      1   1   1
    17    26      1   1   1
    17    10      1   0   0
    17    20      1   0   0
    17    27      1   0   0
    18     2      0   0   0
    18     8      0   0   0
    18    11      0   0   1
    18    23      0   0   1
    18    26      0   0   1
    18    10      0  -1   0
    18    22      0  -1   0
    18    27      0  -1   0
    19     3      0   0   0
    19     9      0   0   0
    19    11     -1   0   0
    19    23     -1   0   0
    19    25     -1   0   0
    19    10     -1  -1  -1
    19    22     -1  -1  -1
    19    24     -1  -1  -1
    20     2      0   0   0
    20     9      0   0   0
    20    12      0   0   1
    20    16      0   0   1
    20    26      0   0   1
    20    13     -1   0   0
    20    17     -1   0   0
    20    25     -1   0   0
    21     3      0   0   0
    21     8      0   0   0
    21    12      0  -1   0
    21    16      0  -1   0
    21    27      0  -1   0
    21    13     -1  -1  -1
    21    17     -1  -1  -1
    21    24     -1  -1  -1
    22     4      0   0   0
    22     7      0   0   0
    22    12      1   1   1
    22    19      1   1   1
    22    26      1   1   1
    22    13      0   1   0
    22    18      0   1   0
    22    25      0   1   0
    23     5      0   0   0
    23     6      0   0   0
    23    12      1   0   0
    23    19      1   0   0
    23    27      1   0   0
    23    13      0   0  -1
    23    18      0   0  -1
    23    24      0   0  -1
    24     2      0   0   0
    24     7      0   0   0
    24    15      1   1   1
    24    19      1   1   1
    24    21      1   1   1
    24    14      0   0   1
    24    16      0   0   1
    24    23      0   0   1
    25     5      0   0   0
    25     8      0   0   0
    25    15      1   0   0
    25    19      1   0   0
    25    20      1   0   0
    25    14      0  -1   0
    25    16      0  -1   0
    25    22      0  -1   0
    26     3      0   0   0
    26     6      0   0   0
    26    15      0   0  -1
    26    18      0   0  -1
    26    20      0   0  -1
    26    14     -1  -1  -1
    26    17     -1  -1  -1
    26    22     -1  -1  -1
    27     4      0   0   0
    27     9      0   0   0
    27    15      0   1   0
    27    18      0   1   0
    27    21      0   1   0
    27    14     -1   0   0
    27    17     -1   0   0
    27    23     -1   0   0
end nnkpts

begin exclude_bands
   0
end exclude_bands
