 written on 30Jul2024 at 13:47:54 
  -2.0382519630600293        0.0000000000000000        2.0382519630600293     
   0.0000000000000000        2.0382519630600293        2.0382519630600293     
  -2.0382519630600293        2.0382519630600293        0.0000000000000000     
           8
          43
    3    3    3    3    1    3    3    1    1    3    1    1    1    3    3
    3    3    1    1    3    1    1    1    3    1    1    3    3    3    3
    1    1    1    3    1    1    3    3    1    3    3    3    3

   -2    0    1
    1    1   -0.53150591E-01 -0.15882456E-05
    2    1   -0.46662307E-01  0.25435664E-03
    3    1   -0.46099248E+00 -0.20358861E-01
    4    1    0.46663190E-01  0.22345528E-03
    5    1   -0.87296226E-01 -0.29555445E-02
    6    1   -0.18812383E-01 -0.72991623E-03
    7    1   -0.19050599E-01 -0.72603375E-03
    8    1    0.18799605E-01  0.72991495E-03
    1    2   -0.46663883E-01 -0.25324781E-03
    2    2   -0.53151820E-01  0.73315964E-07
    3    2    0.27036716E+00  0.13408448E-01
    4    2   -0.46658033E-01 -0.47684508E-03
    5    2   -0.13822219E+00 -0.54267806E-02
    6    2   -0.49044585E-02 -0.21675545E-03
    7    2   -0.11890357E-01 -0.51931744E-03
    8    2    0.11536771E-01  0.51066886E-03
    1    3    0.17200872E+00 -0.76255042E-02
    2    3    0.46078016E+00 -0.22910865E-01
    3    3    0.64197612E-01  0.13477330E-05
    4    3   -0.27050095E+00  0.10673839E-01
    5    3   -0.88950948E-02  0.91977598E-04
    6    3    0.87477354E-02 -0.47974897E-04
    7    3   -0.20179943E-01  0.12288307E-03
    8    3   -0.55681182E-01  0.30028290E-03
    1    4    0.46663581E-01 -0.22486755E-03
    2    4   -0.46663293E-01  0.47832791E-03
    3    4    0.17204822E+00  0.67628065E-02
    4    4   -0.53148280E-01 -0.17199078E-06
    5    4    0.13826936E+00  0.40119829E-02
    6    4    0.11599335E-01  0.39327112E-03
    7    4    0.11859159E-01  0.39577942E-03
    8    4   -0.48874974E-02 -0.16665148E-03
    1    5   -0.23586739E-01  0.79615928E-03
    2    5    0.28770609E-01 -0.11302447E-02
    3    5   -0.20781300E+01 -0.21533508E-01
    4    5   -0.28786646E-01  0.83411486E-03
    5    5    0.21451754E-02  0.21859902E-06
    6    5    0.14397394E-03  0.73796449E-06
    7    5    0.68775889E-02  0.29954485E-04
    8    5   -0.10010788E-03 -0.94620760E-06
    1    6   -0.55739201E-02  0.21617667E-03
    2    6    0.18984469E-02 -0.81752283E-04
    3    6    0.20825149E+01  0.11232570E-01
    4    6    0.20013326E-01 -0.67879489E-03
    5    6    0.15084438E-03 -0.57116043E-06
    6    6    0.21248102E-02  0.10709905E-06
    7    6   -0.68424169E-02  0.46408756E-05
    8    6    0.11250487E-03 -0.45797279E-07
    1    7   -0.32492868E-02  0.12288156E-03
    2    7    0.24078567E-01 -0.10490914E-02
    3    7   -0.15320399E+00 -0.93369000E-03
    4    7   -0.24241590E-01  0.80682003E-03
    5    7    0.11786824E-01 -0.50497105E-04
    6    7   -0.11743586E-01 -0.77933607E-05
    7    7    0.27795394E-01  0.12088272E-06
    8    7    0.11978665E-01  0.80271252E-05
    1    8    0.55861714E-02 -0.21781894E-03
    2    8    0.20119781E-01 -0.88830632E-03
    3    8    0.89187959E+00  0.48014373E-02
    4    8    0.16273211E-02 -0.53122421E-04
    5    8   -0.74130669E-04  0.63257717E-06
    6    8    0.83561580E-04 -0.13796068E-07
    7    8    0.70418704E-02 -0.49258699E-05
    8    8    0.22392555E-02 -0.10739289E-06

   -2    1    0
    1    1    0.64197789E-01  0.14856309E-05
    2    1   -0.38643952E-01  0.21213233E-03
    3    1    0.17203618E+00  0.75842518E-02
    4    1    0.38642606E-01  0.18526215E-03
    5    1   -0.47961059E-02 -0.16413142E-03
    6    1    0.11279138E-01  0.43745390E-03
    7    1   -0.13822572E+00 -0.52686978E-02
    8    1   -0.12260033E-01 -0.47604021E-03
    1    2    0.21747596E-01  0.11650305E-03
    2    2   -0.53150006E-01  0.83077559E-06
    3    2   -0.17197836E+00 -0.85182277E-02
    4    2   -0.46657870E-01 -0.47658383E-03
    5    2    0.11470084E-01  0.45020539E-03
    6    2   -0.46217814E-02 -0.20402386E-03
    7    2    0.13819364E+00  0.60191911E-02
    8    2    0.12242701E-01  0.54150234E-03
    1    3   -0.46097368E+00  0.20401148E-01
    2    3    0.17833954E+01 -0.88495255E-01
    3    3   -0.53147697E-01 -0.14947076E-05
    4    3   -0.46102829E+00  0.18198702E-01
    5    3    0.24196491E-01 -0.24994967E-03
    6    3    0.19933450E-01 -0.10870601E-03
    7    3   -0.16992162E-02  0.98127215E-05
    8    3   -0.28874474E-01  0.15663320E-03
    1    4   -0.21746631E-01  0.10472037E-03
    2    4   -0.46664779E-01  0.47781450E-03
    3    4   -0.48610096E+00 -0.19133444E-01
    4    4   -0.53149273E-01 -0.90843186E-07
    5    4   -0.11469775E-01 -0.33452981E-03
    6    4    0.11302109E-01  0.38335791E-03
    7    4   -0.13825736E+00 -0.46060783E-02
    8    4   -0.55675166E-02 -0.18963513E-03
    1    5    0.20291754E-01 -0.68590975E-03
    2    5   -0.24111119E-01  0.94570867E-03
    3    5   -0.90733627E-01 -0.93037519E-03
    4    5    0.24114408E-01 -0.70016406E-03
    5    5    0.27793577E-01 -0.73067420E-06
    6    5    0.11811330E-01  0.58684867E-04
    7    5    0.11885261E-01  0.51107765E-04
    8    5   -0.11806949E-01 -0.58564060E-04
    1    6    0.90699969E-02 -0.35171659E-03
    2    6    0.17982434E-02 -0.77224398E-04
    3    6   -0.50685728E+00 -0.26806887E-02
    4    6    0.20107092E-01 -0.68109725E-03
    5    6    0.69019697E-02 -0.34019606E-04
    6    6    0.21577580E-02  0.22315526E-06
    7    6   -0.11032516E-03 -0.92919171E-07
    8    6    0.12069156E-03 -0.22806389E-06
    1    7    0.55573946E-01 -0.21179499E-02
    2    7   -0.28914141E-01  0.12595935E-02
    3    7    0.64699384E-01  0.45135554E-03
    4    7    0.28810014E-01 -0.95917242E-03
    5    7    0.69634739E-02 -0.29616074E-04
    6    7   -0.95873545E-04  0.18034873E-07
    7    7    0.21928471E-02 -0.36706700E-06
    8    7    0.10261882E-03  0.31856295E-06
    1    8   -0.87398880E-02  0.33892841E-03
    2    8    0.19892660E-01 -0.87913314E-03
    3    8   -0.88611555E-01 -0.45885718E-03
    4    8    0.18844479E-02 -0.62110646E-04
    5    8   -0.68979967E-02  0.34561702E-04
    6    8    0.12656432E-03 -0.19177555E-06
    7    8    0.10676346E-03  0.73482235E-08
    8    8    0.21565616E-02  0.14372991E-06

   -2    1    1
    1    1   -0.53148183E-01 -0.44006074E-06
    2    1   -0.46662036E-01  0.25348031E-03
    3    1    0.46619436E-01  0.20609440E-02
    4    1   -0.21741482E-01 -0.10539264E-03
    5    1    0.17868515E-02  0.62092026E-04
    6    1   -0.24184048E-01 -0.93659311E-03
    7    1    0.20192974E-01  0.77251944E-03
    8    1   -0.28669061E-01 -0.11110619E-02
    1    2   -0.46665044E-01 -0.25394216E-03
    2    2   -0.53147665E-01  0.99793937E-06
    3    2   -0.38592675E-01 -0.19163795E-02
    4    2    0.21734575E-01  0.22004551E-03
    5    2    0.89272393E-02  0.35022757E-03
    6    2    0.20495560E-01  0.90631967E-03
    7    2   -0.92034376E-02 -0.40050586E-03
    8    2    0.55438617E-01  0.24518010E-02
    1    3   -0.68032392E-01  0.30068560E-02
    2    3   -0.22962025E+00  0.11404049E-01
    3    3   -0.53151121E-01 -0.23658952E-06
    4    3    0.22971714E+00 -0.90557303E-02
    5    3    0.13413283E-02 -0.17440160E-04
    6    3   -0.13508803E-02  0.10154713E-04
    7    3   -0.13609163E-01  0.87718299E-04
    8    3    0.12793769E-02 -0.99938786E-05
    1    4    0.38642738E-01 -0.18382967E-03
    2    4   -0.38638177E-01  0.39901708E-03
    3    4    0.46622502E-01  0.18371560E-02
    4    4    0.64197264E-01 -0.79299140E-06
    5    4    0.56339308E-02  0.16384137E-03
    6    4   -0.33257851E-02 -0.11230170E-03
    7    4   -0.55078503E-02 -0.18226810E-03
    8    4   -0.23578792E-01 -0.80290566E-03
    1    5    0.78336690E-01 -0.26511454E-02
    2    5   -0.21741216E+00  0.85361079E-02
    3    5    0.56659142E-02  0.60579769E-04
    4    5    0.55116069E-02 -0.16284696E-03
    5    5    0.21825218E-02  0.48941362E-06
    6    5    0.80332390E-04  0.17213219E-06
    7    5    0.13040157E-03  0.64839149E-06
    8    5   -0.69433185E-02 -0.34853731E-04
    1    6    0.15926574E-01 -0.61935466E-03
    2    6   -0.21808719E+00  0.96422932E-02
    3    6   -0.58150317E-02 -0.32384033E-04
    4    6    0.16219710E-01 -0.55614417E-03
    5    6    0.68351340E-04 -0.31853324E-06
    6    6    0.22250935E-02 -0.72493867E-07
    7    6   -0.10175848E-03  0.89838407E-07
    8    6    0.70192320E-02 -0.15132613E-06
    1    7   -0.55232384E-02  0.21090442E-03
    2    7    0.21814548E+00 -0.95012512E-02
    3    7   -0.78283678E-01 -0.47541600E-03
    4    7   -0.58825018E-02  0.19920471E-03
    5    7    0.15088992E-03 -0.11454545E-05
    6    7   -0.13309131E-03  0.86291537E-07
    7    7    0.20998459E-02 -0.97950361E-07
    8    7    0.67989085E-02  0.49714390E-05
    1    8    0.55056140E-02 -0.21332170E-03
    2    8   -0.21584387E+00  0.95465959E-02
    3    8   -0.16288827E-01 -0.88837328E-04
    4    8    0.78254713E-01 -0.26637999E-02
    5    8   -0.11865789E-01  0.59005171E-04
    6    8    0.11952952E-01  0.34854072E-06
    7    8    0.11695409E-01 -0.79335049E-05
    8    8    0.27793800E-01  0.15273268E-06

   -1   -1    0
    1    1    0.64197789E-01 -0.14856309E-05
    2    1    0.21747596E-01 -0.11650305E-03
    3    1   -0.46097368E+00 -0.20401148E-01
    4    1   -0.21746631E-01 -0.10472037E-03
    5    1    0.20291754E-01  0.68590975E-03
    6    1    0.90699980E-02  0.35171663E-03
    7    1    0.55573946E-01  0.21179499E-02
    8    1   -0.87398869E-02 -0.33892837E-03
    1    2   -0.38643952E-01 -0.21213233E-03
    2    2   -0.53150006E-01 -0.83077560E-06
    3    2    0.17833954E+01  0.88495255E-01
    4    2   -0.46664780E-01 -0.47781450E-03
    5    2   -0.24111119E-01 -0.94570866E-03
    6    2    0.17982433E-02  0.77224395E-04
    7    2   -0.28914140E-01 -0.12595934E-02
    8    2    0.19892659E-01  0.87913311E-03
    1    3    0.17203618E+00 -0.75842518E-02
    2    3   -0.17197836E+00  0.85182277E-02
    3    3   -0.53147697E-01  0.14947076E-05
    4    3   -0.48610096E+00  0.19133444E-01
    5    3   -0.90733627E-01  0.93037519E-03
    6    3   -0.50685728E+00  0.26806887E-02
    7    3    0.64699384E-01 -0.45135554E-03
    8    3   -0.88611555E-01  0.45885718E-03
    1    4    0.38642606E-01 -0.18526215E-03
    2    4   -0.46657870E-01  0.47658383E-03
    3    4   -0.46102829E+00 -0.18198701E-01
    4    4   -0.53149273E-01  0.90843195E-07
    5    4    0.24114409E-01  0.70016407E-03
    6    4    0.20107093E-01  0.68109727E-03
    7    4    0.28810015E-01  0.95917246E-03
    8    4    0.18844480E-02  0.62110649E-04
    1    5   -0.47961059E-02  0.16413142E-03
    2    5    0.11470084E-01 -0.45020539E-03
    3    5    0.24196491E-01  0.24994967E-03
    4    5   -0.11469775E-01  0.33452981E-03
    5    5    0.27793577E-01  0.73067420E-06
    6    5    0.69019697E-02  0.34019606E-04
    7    5    0.69634739E-02  0.29616074E-04
    8    5   -0.68979967E-02 -0.34561702E-04
    1    6    0.11279138E-01 -0.43745390E-03
    2    6   -0.46217814E-02  0.20402387E-03
    3    6    0.19933450E-01  0.10870601E-03
    4    6    0.11302109E-01 -0.38335791E-03
    5    6    0.11811330E-01 -0.58684868E-04
    6    6    0.21577581E-02 -0.22315526E-06
    7    6   -0.95873633E-04 -0.18034814E-07
    8    6    0.12656436E-03  0.19177555E-06
    1    7   -0.13822572E+00  0.52686978E-02
    2    7    0.13819364E+00 -0.60191911E-02
    3    7   -0.16992162E-02 -0.98127213E-05
    4    7   -0.13825736E+00  0.46060783E-02
    5    7    0.11885261E-01 -0.51107765E-04
    6    7   -0.11032520E-03  0.92919144E-07
    7    7    0.21928471E-02  0.36706700E-06
    8    7    0.10676342E-03 -0.73482508E-08
    1    8   -0.12260033E-01  0.47604021E-03
    2    8    0.12242701E-01 -0.54150234E-03
    3    8   -0.28874474E-01 -0.15663320E-03
    4    8   -0.55675166E-02  0.18963513E-03
    5    8   -0.11806949E-01  0.58564060E-04
    6    8    0.12069151E-03  0.22806389E-06
    7    8    0.10261874E-03 -0.31856289E-06
    8    8    0.21565616E-02 -0.14372991E-06

   -1   -1    1
    1    1    0.21242080E+00  0.47055351E-05
    2    1   -0.22988976E+00  0.12459754E-02
    3    1    0.22966738E+00  0.10152021E-01
    4    1   -0.68101560E-01 -0.32849356E-03
    5    1    0.17522918E-02  0.59417089E-04
    6    1    0.20159285E-01  0.78113518E-03
    7    1    0.28675626E-01  0.10914197E-02
    8    1    0.24189140E-01  0.93751049E-03
    1    2    0.11161761E+00  0.60769986E-03
    2    2    0.21242918E+00  0.82076540E-05
    3    2   -0.22960903E+00 -0.11393884E-01
    4    2    0.11161099E+00  0.11426716E-02
    5    2    0.20082478E-01  0.78708432E-03
    6    2    0.16341743E-02  0.70982444E-04
    7    2   -0.28693790E-01 -0.12516776E-02
    8    2   -0.24238572E-01 -0.10733906E-02
    1    3   -0.48600476E+00  0.21477320E-01
    2    3   -0.17197059E+00  0.85264309E-02
    3    3    0.21242194E+00 -0.75138603E-05
    4    3    0.17206025E+00 -0.67668181E-02
    5    3   -0.15880444E-01  0.16960323E-03
    6    3   -0.57070033E-02  0.34517882E-04
    7    3   -0.78395765E-01  0.48014451E-03
    8    3    0.52634205E-02 -0.31758114E-04
    1    4   -0.68098505E-01  0.32865136E-03
    2    4   -0.22988122E+00  0.23530732E-02
    3    4   -0.68051029E-01 -0.26785358E-02
    4    4    0.21242736E+00 -0.50697089E-05
    5    4   -0.90374346E-02 -0.26294497E-03
    6    4    0.91483131E-02  0.31015169E-03
    7    4    0.55439143E-01  0.18467637E-02
    8    4    0.20542055E-01  0.69830846E-03
    1    5   -0.23582378E-01  0.79663486E-03
    2    5    0.55551257E-01 -0.21805880E-02
    3    5   -0.28840820E-01 -0.30036626E-03
    4    5   -0.28864355E-01  0.83831644E-03
    5    5    0.28292659E-01  0.12349746E-06
    6    5    0.53786119E-01  0.26655548E-03
    7    5    0.53430940E-01  0.22903380E-03
    8    5    0.21004920E-01  0.10447672E-03
    1    6   -0.31938481E-02  0.12342237E-03
    2    6    0.20319960E-01 -0.89882843E-03
    3    6    0.20120722E-01  0.10799551E-03
    4    6   -0.24055555E-01  0.81793703E-03
    5    6    0.13203759E-01 -0.65489902E-04
    6    6    0.28639208E-01 -0.19732190E-06
    7    6    0.21076308E-01 -0.14215289E-04
    8    6    0.13248442E-01  0.69296564E-07
    1    7   -0.56422069E-02  0.21595723E-03
    2    7   -0.89361627E-02  0.38963892E-03
    3    7   -0.19824614E-02 -0.12767517E-04
    4    7    0.20038000E-01 -0.66686755E-03
    5    7    0.13030265E-01 -0.55896873E-04
    6    7    0.20865188E-01  0.13688761E-04
    7    7    0.28099981E-01 -0.23268808E-06
    8    7    0.13073520E-01  0.90442830E-05
    1    8    0.55668452E-02 -0.21587605E-03
    2    8    0.89200236E-02 -0.39397105E-03
    3    8    0.24052011E-01  0.13130296E-03
    4    8    0.19226590E-02 -0.65194913E-04
    5    8    0.20933894E-01 -0.10395444E-03
    6    8    0.53896725E-01 -0.73397552E-06
    7    8    0.53540620E-01 -0.36582028E-04
    8    8    0.28446089E-01 -0.23107786E-07

   -1   -1    2
    1    1   -0.53148183E-01  0.44006074E-06
    2    1   -0.46665044E-01  0.25394216E-03
    3    1   -0.68032391E-01 -0.30068560E-02
    4    1    0.38642738E-01  0.18382967E-03
    5    1    0.78336690E-01  0.26511454E-02
    6    1    0.15926574E-01  0.61935466E-03
    7    1   -0.55232382E-02 -0.21090441E-03
    8    1    0.55056140E-02  0.21332170E-03
    1    2   -0.46662036E-01 -0.25348031E-03
    2    2   -0.53147665E-01 -0.99793937E-06
    3    2   -0.22962025E+00 -0.11404049E-01
    4    2   -0.38638177E-01 -0.39901708E-03
    5    2   -0.21741216E+00 -0.85361079E-02
    6    2   -0.21808719E+00 -0.96422932E-02
    7    2    0.21814548E+00  0.95012513E-02
    8    2   -0.21584387E+00 -0.95465959E-02
    1    3    0.46619436E-01 -0.20609440E-02
    2    3   -0.38592675E-01  0.19163795E-02
    3    3   -0.53151121E-01  0.23658952E-06
    4    3    0.46622503E-01 -0.18371560E-02
    5    3    0.56659144E-02 -0.60579771E-04
    6    3   -0.58150315E-02  0.32384032E-04
    7    3   -0.78283678E-01  0.47541600E-03
    8    3   -0.16288827E-01  0.88837328E-04
    1    4   -0.21741482E-01  0.10539264E-03
    2    4    0.21734574E-01 -0.22004551E-03
    3    4    0.22971714E+00  0.90557303E-02
    4    4    0.64197264E-01  0.79299140E-06
    5    4    0.55116077E-02  0.16284699E-03
    6    4    0.16219710E-01  0.55614418E-03
    7    4   -0.58825026E-02 -0.19920474E-03
    8    4    0.78254713E-01  0.26637999E-02
    1    5    0.17868515E-02 -0.62092025E-04
    2    5    0.89272393E-02 -0.35022757E-03
    3    5    0.13413283E-02  0.17440160E-04
    4    5    0.56339308E-02 -0.16384137E-03
    5    5    0.21825218E-02 -0.48941362E-06
    6    5    0.68351356E-04  0.31853332E-06
    7    5    0.15088995E-03  0.11454546E-05
    8    5   -0.11865788E-01 -0.59005171E-04
    1    6   -0.24184048E-01  0.93659311E-03
    2    6    0.20495560E-01 -0.90631967E-03
    3    6   -0.13508804E-02 -0.10154713E-04
    4    6   -0.33257851E-02  0.11230170E-03
    5    6    0.80332374E-04 -0.17213211E-06
    6    6    0.22250935E-02  0.72493867E-07
    7    6   -0.13309128E-03 -0.86291553E-07
    8    6    0.11952952E-01 -0.34854072E-06
    1    7    0.20192974E-01 -0.77251944E-03
    2    7   -0.92034376E-02  0.40050586E-03
    3    7   -0.13609163E-01 -0.87718299E-04
    4    7   -0.55078502E-02  0.18226810E-03
    5    7    0.13040158E-03 -0.64839153E-06
    6    7   -0.10175847E-03 -0.89838402E-07
    7    7    0.20998459E-02  0.97950361E-07
    8    7    0.11695409E-01  0.79335049E-05
    1    8   -0.28669061E-01  0.11110619E-02
    2    8    0.55438617E-01 -0.24518010E-02
    3    8    0.12793769E-02  0.99938786E-05
    4    8   -0.23578792E-01  0.80290566E-03
    5    8   -0.69433184E-02  0.34853731E-04
    6    8    0.70192321E-02  0.15132613E-06
    7    8    0.67989085E-02 -0.49714390E-05
    8    8    0.27793800E-01 -0.15273268E-06

   -1    0   -1
    1    1   -0.53150591E-01  0.15882456E-05
    2    1   -0.46663884E-01  0.25324781E-03
    3    1    0.17200872E+00  0.76255042E-02
    4    1    0.46663581E-01  0.22486755E-03
    5    1   -0.23586739E-01 -0.79615928E-03
    6    1   -0.55739203E-02 -0.21617668E-03
    7    1   -0.32492868E-02 -0.12288156E-03
    8    1    0.55861712E-02  0.21781893E-03
    1    2   -0.46662307E-01 -0.25435665E-03
    2    2   -0.53151821E-01 -0.73315978E-07
    3    2    0.46078016E+00  0.22910865E-01
    4    2   -0.46663294E-01 -0.47832791E-03
    5    2    0.28770609E-01  0.11302446E-02
    6    2    0.18984468E-02  0.81752280E-04
    7    2    0.24078567E-01  0.10490913E-02
    8    2    0.20119781E-01  0.88830629E-03
    1    3   -0.46099248E+00  0.20358861E-01
    2    3    0.27036716E+00 -0.13408448E-01
    3    3    0.64197612E-01 -0.13477330E-05
    4    3    0.17204822E+00 -0.67628065E-02
    5    3   -0.20781300E+01  0.21533508E-01
    6    3    0.20825149E+01 -0.11232570E-01
    7    3   -0.15320399E+00  0.93369000E-03
    8    3    0.89187959E+00 -0.48014373E-02
    1    4    0.46663190E-01 -0.22345528E-03
    2    4   -0.46658033E-01  0.47684508E-03
    3    4   -0.27050095E+00 -0.10673839E-01
    4    4   -0.53148279E-01  0.17199079E-06
    5    4   -0.28786647E-01 -0.83411489E-03
    6    4    0.20013327E-01  0.67879491E-03
    7    4   -0.24241590E-01 -0.80682004E-03
    8    4    0.16273212E-02  0.53122423E-04
    1    5   -0.87296226E-01  0.29555445E-02
    2    5   -0.13822219E+00  0.54267806E-02
    3    5   -0.88950947E-02 -0.91977598E-04
    4    5    0.13826936E+00 -0.40119829E-02
    5    5    0.21451754E-02 -0.21859902E-06
    6    5    0.15084442E-03  0.57116063E-06
    7    5    0.11786824E-01  0.50497105E-04
    8    5   -0.74130629E-04 -0.63257697E-06
    1    6   -0.18812383E-01  0.72991623E-03
    2    6   -0.49044585E-02  0.21675546E-03
    3    6    0.87477354E-02  0.47974897E-04
    4    6    0.11599335E-01 -0.39327112E-03
    5    6    0.14397403E-03 -0.73796493E-06
    6    6    0.21248102E-02 -0.10709905E-06
    7    6   -0.11743586E-01  0.77933607E-05
    8    6    0.83561623E-04  0.13796068E-07
    1    7   -0.19050599E-01  0.72603375E-03
    2    7   -0.11890357E-01  0.51931744E-03
    3    7   -0.20179943E-01 -0.12288307E-03
    4    7    0.11859159E-01 -0.39577942E-03
    5    7    0.68775889E-02 -0.29954485E-04
    6    7   -0.68424169E-02 -0.46408756E-05
    7    7    0.27795394E-01 -0.12088272E-06
    8    7    0.70418704E-02  0.49258699E-05
    1    8    0.18799605E-01 -0.72991495E-03
    2    8    0.11536771E-01 -0.51066886E-03
    3    8   -0.55681182E-01 -0.30028290E-03
    4    8   -0.48874974E-02  0.16665148E-03
    5    8   -0.10010780E-03  0.94620717E-06
    6    8    0.11250483E-03  0.45797279E-07
    7    8    0.11978665E-01 -0.80271252E-05
    8    8    0.22392554E-02  0.10739289E-06

   -1    0    0
    1    1   -0.23804663E+00  0.72969499E-05
    2    1    0.46138101E+00 -0.25172242E-02
    3    1   -0.27044079E+00 -0.11958553E-01
    4    1    0.17220138E+00  0.82629144E-03
    5    1   -0.50875593E-02 -0.17144651E-03
    6    1   -0.13822573E+00 -0.53578101E-02
    7    1    0.12065160E-01  0.45981196E-03
    8    1   -0.11185888E-01 -0.43295566E-03
    1    2   -0.17217126E+00 -0.91517429E-03
    2    2    0.71077037E+00 -0.34698640E-04
    3    2    0.46085244E+00  0.22884791E-01
    4    2    0.48645270E+00  0.49695404E-02
    5    2   -0.18961522E-01 -0.74114349E-03
    6    2   -0.87260577E-01 -0.38538653E-02
    7    2    0.19185658E-01  0.83439198E-03
    8    2   -0.18505726E-01 -0.81836380E-03
    1    3   -0.49606119E+00  0.21920946E-01
    2    3    0.49593457E+00 -0.24630064E-01
    3    3   -0.23808619E+00  0.75268414E-05
    4    3   -0.49616210E+00  0.19549657E-01
    5    3    0.90351466E+00 -0.93585273E-02
    6    3    0.20719700E+01 -0.11224340E-01
    7    3   -0.13779154E+00  0.85331428E-03
    8    3   -0.20851057E+01  0.11280310E-01
    1    4   -0.46138877E+00  0.22304843E-02
    2    4    0.17854956E+01 -0.18258115E-01
    3    4    0.17205431E+00  0.67761526E-02
    4    4    0.71083476E+00  0.19887591E-04
    5    4   -0.11776706E-01 -0.34283441E-03
    6    4   -0.13824386E+00 -0.46938101E-02
    7    4    0.12037699E-01  0.40089809E-03
    8    4   -0.45334607E-02 -0.15210995E-03
    1    5   -0.51056702E-02  0.17281895E-03
    2    5    0.11783283E-01 -0.46133138E-03
    3    5   -0.11762836E-01 -0.12087972E-03
    4    5    0.18984758E-01 -0.55174216E-03
    5    5    0.63741995E-01 -0.34079988E-07
    6    5   -0.79687622E-01 -0.39478419E-03
    7    5    0.21002301E-01  0.90090939E-04
    8    5   -0.38301997E-01 -0.19019526E-03
    1    6    0.12146868E-01 -0.47013142E-03
    2    6   -0.54566774E-02  0.23886884E-03
    3    6   -0.13833073E+00 -0.75012219E-03
    4    6   -0.19266923E-01  0.65469378E-03
    5    6    0.38968796E-01 -0.19309204E-03
    6    6   -0.14126664E+00 -0.37766188E-06
    7    6   -0.38104217E-01  0.25231548E-04
    8    6   -0.73375597E-01 -0.76488171E-06
    1    7    0.11083778E-01 -0.42273053E-03
    2    7   -0.11088859E-01  0.48274782E-03
    3    7    0.53698824E-02  0.32803908E-04
    4    7   -0.18427495E-01  0.61392079E-03
    5    7    0.20218064E-01 -0.86830117E-04
    6    7    0.81303849E-01  0.53952150E-04
    7    7    0.63942250E-01  0.43110222E-07
    8    7    0.39360035E-01  0.26466263E-04
    1    8    0.13822550E+00 -0.53607463E-02
    2    8   -0.13819861E+00  0.61118255E-02
    3    8   -0.11221023E-01 -0.61889814E-04
    4    8   -0.87293897E-01  0.29644474E-02
    5    8    0.79626005E-01 -0.39548704E-03
    6    8   -0.31959642E+00  0.39502144E-05
    7    8   -0.77836011E-01  0.52806159E-04
    8    8   -0.13912185E+00  0.35588937E-06

   -1    0    1
    1    1    0.71079551E+00 -0.13363354E-04
    2    1    0.17855631E+01 -0.96760007E-02
    3    1   -0.21728828E-01 -0.96222776E-03
    4    1   -0.46146111E+00 -0.21727973E-02
    5    1    0.18764586E-02  0.64441072E-04
    6    1    0.19890880E-01  0.76970986E-03
    7    1   -0.24079298E-01 -0.91801844E-03
    8    1   -0.28962755E-01 -0.11217386E-02
    1    2    0.48647252E+00  0.26241103E-02
    2    2    0.71080832E+00 -0.26093173E-04
    3    2    0.21727054E-01  0.10769356E-02
    4    2   -0.17218227E+00 -0.17324928E-02
    5    2    0.19988617E-01  0.78446864E-03
    6    2    0.19535667E-02  0.86143526E-04
    7    2    0.24042805E-01  0.10474467E-02
    8    2    0.28913565E-01  0.12801641E-02
    1    3    0.17203791E+00 -0.76213262E-02
    2    3    0.27040816E+00 -0.13435203E-01
    3    3   -0.23800907E+00  0.19319092E-04
    4    3   -0.46109991E+00  0.18191314E-01
    5    3   -0.88958000E-02  0.92173597E-04
    6    3    0.55507577E-01 -0.29986552E-03
    7    3   -0.20488734E-01  0.12493773E-03
    8    3   -0.92021205E-02  0.49914608E-04
    1    4    0.17219834E+00 -0.85014163E-03
    2    4    0.46145266E+00 -0.47512169E-02
    3    4   -0.21717377E-01 -0.85524200E-03
    4    4   -0.23812241E+00  0.19539815E-04
    5    4    0.56310500E-02  0.16163779E-03
    6    4   -0.56927906E-02 -0.19456208E-03
    7    4   -0.31327663E-02 -0.10554064E-03
    8    4   -0.23562236E-01 -0.80068607E-03
    1    5   -0.63642561E-01  0.21191250E-02
    2    5    0.20748956E+01 -0.81413253E-01
    3    5   -0.55537073E-01 -0.57598189E-03
    4    5    0.50659032E+00 -0.14659571E-01
    5    5   -0.14040832E+00  0.39249216E-06
    6    5   -0.31960004E+00 -0.15836109E-02
    7    5   -0.79450574E-01 -0.34075086E-03
    8    5    0.80120754E-01  0.39789464E-03
    1    6    0.92179469E-01 -0.35902158E-02
    2    6    0.14908725E+00 -0.65962386E-02
    3    6    0.89344559E-02  0.49050201E-04
    4    6    0.90043351E-01 -0.30578748E-02
    5    6   -0.73380433E-01  0.36356138E-03
    6    6   -0.13998541E+00  0.43360902E-07
    7    6   -0.38310669E-01  0.25348586E-04
    8    6    0.39120988E-01  0.67782156E-06
    1    7    0.88047883E-01 -0.33564788E-02
    2    7    0.89406671E+00 -0.38921634E-01
    3    7   -0.20434778E-01 -0.12468949E-03
    4    7    0.91060272E-01 -0.30170493E-02
    5    7    0.38777000E-01 -0.16655487E-03
    6    7    0.80033589E-01  0.53253090E-04
    7    7    0.63547490E-01  0.16617827E-06
    8    7    0.20395301E-01  0.13643439E-04
    1    8    0.50644184E+00 -0.19684117E-01
    2    8    0.20813313E+01 -0.92038109E-01
    3    8   -0.90788720E-02 -0.48438000E-04
    4    8   -0.62785784E-01  0.21719363E-02
    5    8   -0.38537452E-01  0.19136278E-03
    6    8   -0.78843572E-01  0.91145170E-06
    7    8    0.20823474E-01 -0.13868840E-04
    8    8    0.64141966E-01 -0.44118062E-08

   -1    0    2
    1    1   -0.53150591E-01  0.15882456E-05
    2    1   -0.46663883E-01  0.25324781E-03
    3    1    0.17200872E+00  0.76255042E-02
    4    1    0.46663581E-01  0.22486755E-03
    5    1   -0.23586739E-01 -0.79615928E-03
    6    1   -0.55739203E-02 -0.21617667E-03
    7    1   -0.32492868E-02 -0.12288156E-03
    8    1    0.55861712E-02  0.21781893E-03
    1    2   -0.46662307E-01 -0.25435665E-03
    2    2   -0.53151821E-01 -0.73315975E-07
    3    2    0.46078016E+00  0.22910865E-01
    4    2   -0.46663294E-01 -0.47832791E-03
    5    2    0.28770609E-01  0.11302446E-02
    6    2    0.18984469E-02  0.81752281E-04
    7    2    0.24078567E-01  0.10490913E-02
    8    2    0.20119781E-01  0.88830629E-03
    1    3   -0.46099248E+00  0.20358861E-01
    2    3    0.27036716E+00 -0.13408448E-01
    3    3    0.64197612E-01 -0.13477330E-05
    4    3    0.17204822E+00 -0.67628065E-02
    5    3   -0.20781300E+01  0.21533508E-01
    6    3    0.20825149E+01 -0.11232570E-01
    7    3   -0.15320399E+00  0.93369000E-03
    8    3    0.89187959E+00 -0.48014373E-02
    1    4    0.46663190E-01 -0.22345528E-03
    2    4   -0.46658033E-01  0.47684509E-03
    3    4   -0.27050095E+00 -0.10673839E-01
    4    4   -0.53148280E-01  0.17199078E-06
    5    4   -0.28786647E-01 -0.83411489E-03
    6    4    0.20013327E-01  0.67879491E-03
    7    4   -0.24241590E-01 -0.80682004E-03
    8    4    0.16273212E-02  0.53122423E-04
    1    5   -0.87296226E-01  0.29555445E-02
    2    5   -0.13822219E+00  0.54267806E-02
    3    5   -0.88950947E-02 -0.91977598E-04
    4    5    0.13826936E+00 -0.40119829E-02
    5    5    0.21451753E-02 -0.21859902E-06
    6    5    0.15084434E-03  0.57116020E-06
    7    5    0.11786824E-01  0.50497105E-04
    8    5   -0.74130586E-04 -0.63257675E-06
    1    6   -0.18812383E-01  0.72991623E-03
    2    6   -0.49044584E-02  0.21675545E-03
    3    6    0.87477354E-02  0.47974898E-04
    4    6    0.11599335E-01 -0.39327113E-03
    5    6    0.14397399E-03 -0.73796472E-06
    6    6    0.21248102E-02 -0.10709905E-06
    7    6   -0.11743586E-01  0.77933607E-05
    8    6    0.83561664E-04  0.13796069E-07
    1    7   -0.19050598E-01  0.72603374E-03
    2    7   -0.11890357E-01  0.51931742E-03
    3    7   -0.20179943E-01 -0.12288307E-03
    4    7    0.11859159E-01 -0.39577942E-03
    5    7    0.68775889E-02 -0.29954485E-04
    6    7   -0.68424169E-02 -0.46408756E-05
    7    7    0.27795394E-01 -0.12088272E-06
    8    7    0.70418704E-02  0.49258699E-05
    1    8    0.18799605E-01 -0.72991495E-03
    2    8    0.11536772E-01 -0.51066890E-03
    3    8   -0.55681182E-01 -0.30028290E-03
    4    8   -0.48874974E-02  0.16665148E-03
    5    8   -0.10010784E-03  0.94620738E-06
    6    8    0.11250491E-03  0.45797278E-07
    7    8    0.11978665E-01 -0.80271252E-05
    8    8    0.22392555E-02  0.10739289E-06

   -1    1   -1
    1    1    0.21242392E+00 -0.82193221E-05
    2    1    0.68099360E-01 -0.36694850E-03
    3    1   -0.11150991E+00 -0.49272729E-02
    4    1   -0.11161873E+00 -0.53519084E-03
    5    1   -0.23579066E-01 -0.79708861E-03
    6    1   -0.55885879E-02 -0.21513010E-03
    7    1   -0.56263261E-02 -0.21475798E-03
    8    1    0.31952118E-02  0.12071514E-03
    1    2    0.68100060E-01  0.36655480E-03
    2    2    0.21242660E+00  0.79774378E-05
    3    2    0.68016686E-01  0.33734270E-02
    4    2    0.11161383E+00  0.11430337E-02
    5    2    0.28862928E-01  0.11352063E-02
    6    2    0.16606741E-02  0.72045360E-04
    7    2   -0.19922762E-01 -0.86697907E-03
    8    2   -0.24197788E-01 -0.10710900E-02
    1    3   -0.17838482E+01  0.78829704E-01
    2    3    0.46089571E+00 -0.22875845E-01
    3    3    0.21242635E+00  0.48522667E-05
    4    3   -0.46099731E+00  0.18148040E-01
    5    3    0.21676880E+00 -0.22458908E-02
    6    3   -0.21630032E+00  0.11710905E-02
    7    3    0.21829341E+00 -0.13248925E-02
    8    3    0.21890130E+00 -0.11816300E-02
    1    4    0.22990300E+00 -0.11090803E-02
    2    4   -0.22989035E+00  0.23524091E-02
    3    4   -0.11153207E+00 -0.43926954E-02
    4    4    0.21242175E+00 -0.44964583E-05
    5    4   -0.55571996E-01 -0.16116193E-02
    6    4    0.90529905E-02  0.30619375E-03
    7    4    0.88001559E-02  0.29407310E-03
    8    4    0.20322227E-01  0.69095241E-03
    1    5    0.17646424E-02 -0.59765964E-04
    2    5    0.90370104E-02 -0.35554693E-03
    3    5    0.55721952E-02  0.57373512E-04
    4    5   -0.20094282E-01  0.58308173E-03
    5    5    0.28304993E-01 -0.66059460E-06
    6    5   -0.20939500E-01 -0.10339321E-03
    7    5    0.13254184E-01  0.56810606E-04
    8    5   -0.12986912E-01 -0.64826328E-04
    1    6   -0.24134039E-01  0.93442588E-03
    2    6    0.20227481E-01 -0.89483971E-03
    3    6   -0.55455480E-02 -0.29917081E-04
    4    6   -0.24044658E-01  0.81781555E-03
    5    6   -0.20999771E-01  0.10465938E-03
    6    6    0.28432322E-01 -0.47558616E-06
    7    6   -0.13291454E-01  0.90162803E-05
    8    6    0.13023993E-01  0.52961102E-07
    1    7    0.28949020E-01 -0.11019926E-02
    2    7   -0.55592303E-01  0.24212996E-02
    3    7    0.23597307E-01  0.14426223E-03
    4    7    0.28856687E-01 -0.96266601E-03
    5    7    0.53892735E-01 -0.23120194E-03
    6    7   -0.53986414E-01 -0.36084192E-04
    7    7    0.28784469E-01  0.52885108E-06
    8    7   -0.20804071E-01 -0.14392268E-04
    1    8   -0.19856914E-01  0.77163990E-03
    2    8    0.86855017E-02 -0.38385087E-03
    3    8    0.33395046E-02  0.18340377E-04
    4    8    0.19855017E-02 -0.66720732E-04
    5    8   -0.53339579E-01  0.26523965E-03
    6    8    0.53433073E-01 -0.91700886E-06
    7    8   -0.21133257E-01  0.13771469E-04
    8    8    0.27956824E-01  0.49340531E-06

   -1    1    0
    1    1   -0.23807637E+00  0.18998609E-04
    2    1    0.46141578E+00 -0.25459511E-02
    3    1    0.38604950E-01  0.17084178E-02
    4    1   -0.27069785E+00 -0.12788390E-02
    5    1    0.20389399E-01  0.68946705E-03
    6    1    0.87803651E-02  0.34008325E-03
    7    1    0.91822411E-02  0.34957170E-03
    8    1   -0.55516409E-01 -0.21531650E-02
    1    2   -0.17220730E+00 -0.90726020E-03
    2    2    0.71082778E+00 -0.26128722E-04
    3    2   -0.46610358E-01 -0.23122439E-02
    4    2   -0.17217028E+00 -0.17331116E-02
    5    2   -0.24133530E-01 -0.94609349E-03
    6    2    0.18693341E-02  0.82190061E-04
    7    2   -0.20172722E-01 -0.87946843E-03
    8    2    0.28722110E-01  0.12711088E-02
    1    3   -0.46097599E+00  0.20383208E-01
    2    3    0.46084399E+00 -0.22902802E-01
    3    3    0.71077586E+00 -0.12509575E-04
    4    3   -0.17842063E+01  0.70254904E-01
    5    3    0.24191772E-01 -0.25041018E-03
    6    3    0.28769905E-01 -0.15683733E-03
    7    3   -0.17806813E-02  0.94286892E-05
    8    3   -0.20135247E-01  0.10905387E-03
    1    4   -0.27073684E+00  0.13177091E-02
    2    4    0.46138802E+00 -0.47495622E-02
    3    4    0.46621647E-01  0.18363060E-02
    4    4   -0.23805412E+00  0.19273133E-04
    5    4    0.32564961E-02  0.93187024E-04
    6    4   -0.56965988E-02 -0.19477988E-03
    7    4   -0.55054900E-02 -0.18046346E-03
    8    4   -0.23575176E-01 -0.80161256E-03
    1    5    0.13990697E+00 -0.47356805E-02
    2    5   -0.89848535E+00  0.35251419E-01
    3    5    0.31819061E-02  0.34426803E-04
    4    5   -0.89578300E-01  0.25838839E-02
    5    5    0.63901449E-01  0.10919623E-06
    6    5   -0.80050327E-01 -0.39658474E-03
    7    5    0.39256789E-01  0.16818387E-03
    8    5   -0.20067745E-01 -0.99601426E-04
    1    6   -0.90120852E+00  0.34958441E-01
    2    6    0.14344429E+00 -0.63466938E-02
    3    6   -0.55351988E-02 -0.28546649E-04
    4    6    0.88917428E-01 -0.30214486E-02
    5    6    0.38169618E-01 -0.18917681E-03
    6    6   -0.13933233E+00 -0.54429297E-07
    7    6    0.73375032E-01 -0.48982413E-04
    8    6    0.39434609E-01  0.57234767E-06
    1    7    0.20875307E+01 -0.79584755E-01
    2    7   -0.20862153E+01  0.90822224E-01
    3    7    0.23590461E-01  0.14474726E-03
    4    7   -0.50660789E+00  0.16837182E-01
    5    7   -0.79120884E-01  0.33939274E-03
    6    7    0.31959580E+00  0.21257447E-03
    7    7   -0.14105401E+00  0.41700740E-06
    8    7   -0.81521628E-01 -0.55101216E-04
    1    8   -0.20670383E+01  0.80220501E-01
    2    8    0.20682883E+01 -0.91459813E-01
    3    8    0.57111569E-02  0.31220296E-04
    4    8   -0.65444233E-01  0.22604635E-02
    5    8   -0.21148788E-01  0.10494719E-03
    6    8   -0.77758730E-01  0.11460675E-05
    7    8    0.37874561E-01 -0.25663939E-04
    8    8    0.63779795E-01 -0.10521847E-06

   -1    1    1
    1    1    0.21242705E+00  0.44371675E-07
    2    1   -0.22989694E+00  0.12549939E-02
    3    1    0.46621119E-01  0.20607753E-02
    4    1    0.22988853E+00  0.10942585E-02
    5    1    0.13598330E-01  0.45471814E-03
    6    1   -0.13276726E-02 -0.48849967E-04
    7    1   -0.13010762E-02 -0.45887790E-04
    8    1    0.13347272E-02  0.48093498E-04
    1    2    0.11161858E+00  0.60900271E-03
    2    2    0.21241836E+00  0.37303720E-05
    3    2   -0.46609565E-01 -0.23137724E-02
    4    2    0.68096830E-01  0.69372816E-03
    5    2   -0.13193188E-02 -0.48633844E-04
    6    2    0.13594528E-01  0.59475735E-03
    7    2    0.12879837E-02  0.53071284E-04
    8    2   -0.13634537E-02 -0.57917362E-04
    1    3    0.46617052E-01 -0.20596465E-02
    2    3    0.21711854E-01 -0.10772792E-02
    3    3    0.21242557E+00 -0.43379474E-06
    4    3    0.46632336E-01 -0.18357240E-02
    5    3   -0.20040575E-01  0.20451460E-03
    6    3    0.28920575E-01 -0.15760442E-03
    7    3   -0.20010744E-02  0.98170254E-05
    8    3    0.24035837E-01 -0.13097391E-03
    1    4   -0.11161756E+00  0.53329434E-03
    2    4    0.68094418E-01 -0.69710141E-03
    3    4    0.38616341E-01  0.15223891E-02
    4    4    0.21242905E+00 -0.24038796E-05
    5    4    0.13231689E-02  0.34732225E-04
    6    4   -0.12891221E-02 -0.41498540E-04
    7    4   -0.13688309E-02 -0.42329459E-04
    8    4    0.13596663E-01  0.45611318E-03
    1    5   -0.62435302E-01  0.21208021E-02
    2    5    0.20808758E+01 -0.81694963E-01
    3    5    0.56603777E-02  0.58955586E-04
    4    5   -0.20814446E+01  0.60422066E-01
    5    5    0.28514262E-01  0.64483229E-07
    6    5    0.53532961E-01  0.26463909E-03
    7    5   -0.20917587E-01 -0.89776382E-04
    8    5   -0.53977184E-01 -0.26768445E-03
    1    6    0.88798965E-01 -0.34447701E-02
    2    6    0.13243391E+00 -0.58727847E-02
    3    6    0.15789961E-01  0.83530740E-04
    4    6   -0.89303834E+00  0.30338117E-01
    5    6    0.13081878E-01 -0.64676207E-04
    6    6    0.28036445E-01 -0.43271278E-06
    7    6   -0.12982186E-01  0.85281970E-05
    8    6   -0.20836100E-01  0.25073425E-06
    1    7   -0.50641760E+00  0.19307565E-01
    2    7   -0.20714481E+01  0.90227230E-01
    3    7   -0.78420524E-01 -0.47335926E-03
    4    7    0.20768027E+01 -0.69207019E-01
    5    7   -0.21022694E-01  0.90315322E-04
    6    7   -0.53349649E-01 -0.35055302E-04
    7    7    0.28222616E-01  0.36735071E-07
    8    7    0.53792940E-01  0.36179251E-04
    1    8   -0.92607228E-01  0.35873835E-02
    2    8   -0.90662057E+00  0.40088967E-01
    3    8    0.51930510E-02  0.28314885E-04
    4    8    0.15093683E+00 -0.51465706E-02
    5    8   -0.13296789E-01  0.66124937E-04
    6    8   -0.21101886E-01  0.33879928E-06
    7    8    0.13196057E-01 -0.90293410E-05
    8    8    0.28703874E-01 -0.60557469E-06

   -1    2   -1
    1    1   -0.53148183E-01  0.44006074E-06
    2    1   -0.46665044E-01  0.25394216E-03
    3    1   -0.68032392E-01 -0.30068560E-02
    4    1    0.38642738E-01  0.18382967E-03
    5    1    0.78336690E-01  0.26511454E-02
    6    1    0.15926574E-01  0.61935466E-03
    7    1   -0.55232382E-02 -0.21090441E-03
    8    1    0.55056140E-02  0.21332170E-03
    1    2   -0.46662036E-01 -0.25348031E-03
    2    2   -0.53147665E-01 -0.99793937E-06
    3    2   -0.22962025E+00 -0.11404049E-01
    4    2   -0.38638177E-01 -0.39901708E-03
    5    2   -0.21741216E+00 -0.85361079E-02
    6    2   -0.21808719E+00 -0.96422932E-02
    7    2    0.21814548E+00  0.95012513E-02
    8    2   -0.21584387E+00 -0.95465959E-02
    1    3    0.46619436E-01 -0.20609439E-02
    2    3   -0.38592675E-01  0.19163795E-02
    3    3   -0.53151121E-01  0.23658952E-06
    4    3    0.46622502E-01 -0.18371559E-02
    5    3    0.56659152E-02 -0.60579780E-04
    6    3   -0.58150325E-02  0.32384037E-04
    7    3   -0.78283678E-01  0.47541600E-03
    8    3   -0.16288827E-01  0.88837330E-04
    1    4   -0.21741482E-01  0.10539264E-03
    2    4    0.21734574E-01 -0.22004551E-03
    3    4    0.22971714E+00  0.90557303E-02
    4    4    0.64197264E-01  0.79299140E-06
    5    4    0.55116077E-02  0.16284699E-03
    6    4    0.16219710E-01  0.55614418E-03
    7    4   -0.58825026E-02 -0.19920474E-03
    8    4    0.78254713E-01  0.26637999E-02
    1    5    0.17868515E-02 -0.62092026E-04
    2    5    0.89272394E-02 -0.35022757E-03
    3    5    0.13413283E-02  0.17440160E-04
    4    5    0.56339307E-02 -0.16384137E-03
    5    5    0.21825218E-02 -0.48941362E-06
    6    5    0.68351332E-04  0.31853320E-06
    7    5    0.15088993E-03  0.11454545E-05
    8    5   -0.11865789E-01 -0.59005171E-04
    1    6   -0.24184048E-01  0.93659311E-03
    2    6    0.20495560E-01 -0.90631967E-03
    3    6   -0.13508804E-02 -0.10154713E-04
    4    6   -0.33257851E-02  0.11230170E-03
    5    6    0.80332366E-04 -0.17213207E-06
    6    6    0.22250935E-02  0.72493867E-07
    7    6   -0.13309129E-03 -0.86291548E-07
    8    6    0.11952952E-01 -0.34854072E-06
    1    7    0.20192974E-01 -0.77251944E-03
    2    7   -0.92034376E-02  0.40050586E-03
    3    7   -0.13609163E-01 -0.87718299E-04
    4    7   -0.55078502E-02  0.18226810E-03
    5    7    0.13040159E-03 -0.64839160E-06
    6    7   -0.10175850E-03 -0.89838418E-07
    7    7    0.20998459E-02  0.97950361E-07
    8    7    0.11695409E-01  0.79335048E-05
    1    8   -0.28669061E-01  0.11110619E-02
    2    8    0.55438617E-01 -0.24518010E-02
    3    8    0.12793769E-02  0.99938786E-05
    4    8   -0.23578792E-01  0.80290566E-03
    5    8   -0.69433185E-02  0.34853731E-04
    6    8    0.70192321E-02  0.15132613E-06
    7    8    0.67989085E-02 -0.49714390E-05
    8    8    0.27793800E-01 -0.15273268E-06

   -1    2    0
    1    1    0.64197789E-01 -0.14856309E-05
    2    1    0.21747596E-01 -0.11650305E-03
    3    1   -0.46097368E+00 -0.20401148E-01
    4    1   -0.21746631E-01 -0.10472037E-03
    5    1    0.20291754E-01  0.68590975E-03
    6    1    0.90699980E-02  0.35171664E-03
    7    1    0.55573946E-01  0.21179499E-02
    8    1   -0.87398869E-02 -0.33892837E-03
    1    2   -0.38643952E-01 -0.21213233E-03
    2    2   -0.53150006E-01 -0.83077560E-06
    3    2    0.17833954E+01  0.88495255E-01
    4    2   -0.46664780E-01 -0.47781450E-03
    5    2   -0.24111119E-01 -0.94570866E-03
    6    2    0.17982433E-02  0.77224396E-04
    7    2   -0.28914140E-01 -0.12595934E-02
    8    2    0.19892659E-01  0.87913311E-03
    1    3    0.17203618E+00 -0.75842518E-02
    2    3   -0.17197836E+00  0.85182277E-02
    3    3   -0.53147697E-01  0.14947076E-05
    4    3   -0.48610096E+00  0.19133444E-01
    5    3   -0.90733627E-01  0.93037519E-03
    6    3   -0.50685728E+00  0.26806887E-02
    7    3    0.64699384E-01 -0.45135554E-03
    8    3   -0.88611554E-01  0.45885718E-03
    1    4    0.38642606E-01 -0.18526215E-03
    2    4   -0.46657870E-01  0.47658383E-03
    3    4   -0.46102829E+00 -0.18198701E-01
    4    4   -0.53149273E-01  0.90843195E-07
    5    4    0.24114409E-01  0.70016407E-03
    6    4    0.20107093E-01  0.68109727E-03
    7    4    0.28810015E-01  0.95917246E-03
    8    4    0.18844479E-02  0.62110648E-04
    1    5   -0.47961058E-02  0.16413141E-03
    2    5    0.11470083E-01 -0.45020538E-03
    3    5    0.24196491E-01  0.24994967E-03
    4    5   -0.11469775E-01  0.33452982E-03
    5    5    0.27793577E-01  0.73067420E-06
    6    5    0.69019697E-02  0.34019606E-04
    7    5    0.69634739E-02  0.29616074E-04
    8    5   -0.68979967E-02 -0.34561702E-04
    1    6    0.11279138E-01 -0.43745389E-03
    2    6   -0.46217814E-02  0.20402386E-03
    3    6    0.19933450E-01  0.10870601E-03
    4    6    0.11302109E-01 -0.38335792E-03
    5    6    0.11811330E-01 -0.58684868E-04
    6    6    0.21577581E-02 -0.22315526E-06
    7    6   -0.95873592E-04 -0.18034841E-07
    8    6    0.12656440E-03  0.19177555E-06
    1    7   -0.13822572E+00  0.52686978E-02
    2    7    0.13819364E+00 -0.60191911E-02
    3    7   -0.16992162E-02 -0.98127213E-05
    4    7   -0.13825736E+00  0.46060783E-02
    5    7    0.11885261E-01 -0.51107765E-04
    6    7   -0.11032512E-03  0.92919201E-07
    7    7    0.21928470E-02  0.36706700E-06
    8    7    0.10676338E-03 -0.73482805E-08
    1    8   -0.12260034E-01  0.47604024E-03
    2    8    0.12242702E-01 -0.54150238E-03
    3    8   -0.28874474E-01 -0.15663320E-03
    4    8   -0.55675166E-02  0.18963513E-03
    5    8   -0.11806949E-01  0.58564060E-04
    6    8    0.12069160E-03  0.22806389E-06
    7    8    0.10261878E-03 -0.31856292E-06
    8    8    0.21565616E-02 -0.14372991E-06

    0   -2    1
    1    1   -0.53148476E-01  0.14705796E-06
    2    1    0.21743754E-01 -0.11759476E-03
    3    1   -0.68035429E-01 -0.30061343E-02
    4    1    0.46663436E-01  0.22454098E-03
    5    1    0.17833590E-02  0.62435870E-04
    6    1    0.28938177E-01  0.11214464E-02
    7    1    0.19887966E-01  0.76003302E-03
    8    1    0.24131514E-01  0.93612668E-03
    1    2   -0.38642432E-01 -0.21071749E-03
    2    2    0.64198083E-01 -0.18339561E-05
    3    2    0.11148036E+00  0.55358857E-02
    4    2   -0.38641695E-01 -0.39285498E-03
    5    2   -0.56239533E-02 -0.21976133E-03
    6    2   -0.23557422E-01 -0.10434504E-02
    7    2    0.56650717E-02  0.24712042E-03
    8    2   -0.31418651E-02 -0.13986318E-03
    1    3    0.46617100E-01 -0.20599574E-02
    2    3   -0.46604055E-01  0.23136081E-02
    3    3   -0.53148457E-01  0.29958283E-06
    4    3   -0.21739538E-01  0.85513804E-03
    5    3   -0.20028508E-01  0.20512721E-03
    6    3   -0.24244473E-01  0.13127449E-03
    7    3   -0.16466303E-02  0.83545623E-05
    8    3   -0.28774353E-01  0.15545742E-03
    1    4    0.46663787E-01 -0.22339504E-03
    2    4    0.21754326E-01 -0.22452977E-03
    3    4   -0.11153117E+00 -0.43949281E-02
    4    4   -0.53151187E-01  0.16941431E-05
    5    4   -0.89426996E-02 -0.25919454E-03
    6    4    0.55629251E-01  0.18896578E-02
    7    4    0.87436736E-02  0.29101094E-03
    8    4    0.20204684E-01  0.68617311E-03
    1    5    0.78339644E-01 -0.26492113E-02
    2    5   -0.55292610E-02  0.22081067E-03
    3    5    0.50681737E+00  0.52461016E-02
    4    5    0.21754108E+00 -0.63118300E-02
    5    5    0.21799689E-02 -0.52976800E-06
    6    5    0.69405762E-02  0.34794166E-04
    7    5    0.87621359E-04  0.50581518E-06
    8    5   -0.12531837E-03 -0.41187776E-06
    1    6   -0.56799983E-02  0.21912876E-03
    2    6    0.78361002E-01 -0.34685261E-02
    3    6    0.89975205E-01  0.48540695E-03
    4    6   -0.21847785E+00  0.74206995E-02
    5    6    0.11860406E-01 -0.58853616E-04
    6    6    0.27794300E-01  0.26564361E-06
    7    6   -0.11928825E-01  0.80439720E-05
    8    6    0.11720234E-01  0.40091749E-06
    1    7   -0.53416220E-02  0.20271709E-03
    2    7    0.52632931E-02 -0.23319852E-03
    3    7    0.64030860E-01  0.37637494E-03
    4    7   -0.21563638E+00  0.71829501E-02
    5    7    0.74943959E-04 -0.23556448E-06
    6    7   -0.69992857E-02 -0.47252430E-05
    7    7    0.22136456E-02 -0.13356023E-06
    8    7    0.10544961E-03 -0.16398384E-06
    1    8   -0.15919774E-01  0.61573456E-03
    2    8    0.15726480E-01 -0.70042320E-03
    3    8   -0.90035766E-01 -0.49067241E-03
    4    8   -0.21816900E+00  0.74136702E-02
    5    8   -0.14408799E-03  0.66471652E-06
    6    8    0.68229846E-02 -0.49206046E-06
    7    8    0.12819500E-03 -0.25803549E-06
    8    8    0.21136792E-02  0.90857508E-07

    0   -1   -1
    1    1   -0.53148476E-01 -0.14705797E-06
    2    1   -0.38642432E-01  0.21071749E-03
    3    1    0.46617100E-01  0.20599574E-02
    4    1    0.46663787E-01  0.22339504E-03
    5    1    0.78339644E-01  0.26492113E-02
    6    1   -0.56799985E-02 -0.21912876E-03
    7    1   -0.53416220E-02 -0.20271709E-03
    8    1   -0.15919774E-01 -0.61573456E-03
    1    2    0.21743754E-01  0.11759476E-03
    2    2    0.64198083E-01  0.18339561E-05
    3    2   -0.46604055E-01 -0.23136081E-02
    4    2    0.21754326E-01  0.22452977E-03
    5    2   -0.55292612E-02 -0.22081068E-03
    6    2    0.78361002E-01  0.34685261E-02
    7    2    0.52632931E-02  0.23319852E-03
    8    2    0.15726480E-01  0.70042320E-03
    1    3   -0.68035429E-01  0.30061343E-02
    2    3    0.11148036E+00 -0.55358857E-02
    3    3   -0.53148458E-01 -0.29958283E-06
    4    3   -0.11153117E+00  0.43949281E-02
    5    3    0.50681737E+00 -0.52461016E-02
    6    3    0.89975205E-01 -0.48540695E-03
    7    3    0.64030860E-01 -0.37637494E-03
    8    3   -0.90035766E-01  0.49067241E-03
    1    4    0.46663435E-01 -0.22454098E-03
    2    4   -0.38641695E-01  0.39285498E-03
    3    4   -0.21739538E-01 -0.85513804E-03
    4    4   -0.53151187E-01 -0.16941431E-05
    5    4    0.21754108E+00  0.63118300E-02
    6    4   -0.21847785E+00 -0.74206995E-02
    7    4   -0.21563638E+00 -0.71829501E-02
    8    4   -0.21816900E+00 -0.74136702E-02
    1    5    0.17833591E-02 -0.62435873E-04
    2    5   -0.56239533E-02  0.21976133E-03
    3    5   -0.20028508E-01 -0.20512721E-03
    4    5   -0.89426996E-02  0.25919454E-03
    5    5    0.21799689E-02  0.52976800E-06
    6    5    0.11860406E-01  0.58853616E-04
    7    5    0.74944000E-04  0.23556465E-06
    8    5   -0.14408795E-03 -0.66471632E-06
    1    6    0.28938177E-01 -0.11214464E-02
    2    6   -0.23557422E-01  0.10434504E-02
    3    6   -0.24244473E-01 -0.13127449E-03
    4    6    0.55629251E-01 -0.18896578E-02
    5    6    0.69405762E-02 -0.34794166E-04
    6    6    0.27794300E-01 -0.26564361E-06
    7    6   -0.69992857E-02  0.47252430E-05
    8    6    0.68229846E-02  0.49206046E-06
    1    7    0.19887967E-01 -0.76003303E-03
    2    7    0.56650717E-02 -0.24712042E-03
    3    7   -0.16466304E-02 -0.83545624E-05
    4    7    0.87436736E-02 -0.29101094E-03
    5    7    0.87621445E-04 -0.50581556E-06
    6    7   -0.11928825E-01 -0.80439721E-05
    7    7    0.22136456E-02  0.13356023E-06
    8    7    0.12819504E-03  0.25803552E-06
    1    8    0.24131514E-01 -0.93612667E-03
    2    8   -0.31418651E-02  0.13986318E-03
    3    8   -0.28774353E-01 -0.15545742E-03
    4    8    0.20204684E-01 -0.68617311E-03
    5    8   -0.12531828E-03  0.41187733E-06
    6    8    0.11720234E-01 -0.40091749E-06
    7    8    0.10544957E-03  0.16398387E-06
    8    8    0.21136791E-02 -0.90857508E-07

    0   -1    0
    1    1   -0.23807541E+00 -0.11442103E-04
    2    1    0.27070772E+00 -0.14601468E-02
    3    1   -0.21720429E-01 -0.95796462E-03
    4    1    0.17217844E+00  0.83933641E-03
    5    1    0.13955210E+00  0.47135765E-02
    6    1    0.20850767E+01  0.80874041E-01
    7    1    0.20694242E+01  0.78863916E-01
    8    1    0.90149195E+00  0.34976348E-01
    1    2    0.27072367E+00  0.14840221E-02
    2    2   -0.23805773E+00 -0.11790656E-04
    3    2   -0.46602659E-01 -0.23135513E-02
    4    2   -0.17218077E+00 -0.17747090E-02
    5    2    0.89518880E-01  0.34966202E-02
    6    2   -0.61734277E-01 -0.27826651E-02
    7    2    0.50628470E+00  0.21985588E-01
    8    2    0.92528896E-01  0.40838825E-02
    1    3    0.17200782E+00 -0.75779664E-02
    2    3    0.48588218E+00 -0.24097676E-01
    3    3    0.71084153E+00  0.17638666E-04
    4    3    0.17206897E+00 -0.67538223E-02
    5    3   -0.90782120E-01  0.93905317E-03
    6    3    0.92188576E-01 -0.48111070E-03
    7    3    0.61017379E-01 -0.40206648E-03
    8    3    0.50672611E+00 -0.26944403E-02
    1    4   -0.46141102E+00  0.21840042E-02
    2    4    0.46136537E+00 -0.47065991E-02
    3    4    0.46633027E-01  0.18366084E-02
    4    4    0.71076421E+00  0.58752797E-05
    5    4    0.89852951E+00  0.26058782E-01
    6    4    0.20827284E+01  0.70736871E-01
    7    4    0.20735390E+01  0.69019265E-01
    8    4    0.14388456E+00  0.48847618E-02
    1    5    0.20384783E-01 -0.68907744E-03
    2    5   -0.32411067E-02  0.12874045E-03
    3    5    0.18739137E-01  0.19350958E-03
    4    5    0.24132389E-01 -0.69997956E-03
    5    5    0.63892218E-01 -0.62783697E-07
    6    5    0.20397862E-01  0.10122581E-03
    7    5   -0.78968954E-01 -0.33879486E-03
    8    5   -0.38787544E-01 -0.19240934E-03
    1    6    0.55520109E-01 -0.21527485E-02
    2    6   -0.23570026E-01  0.10434474E-02
    3    6   -0.18603063E-01 -0.10016243E-03
    4    6    0.28850973E-01 -0.98027979E-03
    5    6    0.20827846E-01 -0.10353265E-03
    6    6    0.63793154E-01  0.72213693E-07
    7    6    0.78080490E-01 -0.51913332E-04
    8    6    0.38214833E-01  0.49400437E-06
    1    7    0.88547362E-02 -0.33732571E-03
    2    7    0.56789078E-02 -0.24546937E-03
    3    7    0.87342436E-01  0.52697003E-03
    4    7    0.19976623E-01 -0.66605530E-03
    5    7    0.38625322E-01 -0.16527128E-03
    6    7   -0.39104127E-01 -0.26030271E-04
    7    7   -0.13887070E+00 -0.17453146E-06
    8    7   -0.73374225E-01 -0.49846788E-04
    1    8   -0.90972105E-02  0.35235044E-03
    2    8   -0.55121404E-02  0.24418059E-03
    3    8    0.19368200E-01  0.10487915E-03
    4    8    0.17934895E-02 -0.62001092E-04
    5    8    0.80215695E-01 -0.39834548E-03
    6    8   -0.81192079E-01  0.80019655E-06
    7    8   -0.31959541E+00  0.21651390E-03
    8    8   -0.14151922E+00 -0.11608656E-06

    0   -1    1
    1    1    0.71081520E+00 -0.27614057E-04
    2    1    0.46145044E+00 -0.25074121E-02
    3    1    0.22967858E+00  0.10146240E-01
    4    1   -0.46136536E+00 -0.22197075E-02
    5    1   -0.21817685E+00 -0.73779739E-02
    6    1   -0.21691920E+00 -0.84089917E-02
    7    1   -0.21772272E+00 -0.82977810E-02
    8    1    0.21686772E+00  0.84110004E-02
    1    2   -0.17220458E+00 -0.92485185E-03
    2    2   -0.23811261E+00 -0.61090527E-07
    3    2    0.68013356E-01  0.33725093E-02
    4    2    0.27072065E+00  0.27695847E-02
    5    2    0.16027294E-01  0.62955727E-03
    6    2    0.78278195E-01  0.34603984E-02
    7    2    0.54074299E-02  0.23742260E-03
    8    2   -0.57366801E-02 -0.25533440E-03
    1    3   -0.11151043E+00  0.49280231E-02
    2    3    0.11148105E+00 -0.55347901E-02
    3    3    0.71078941E+00  0.26752029E-04
    4    3   -0.68042730E-01  0.26778349E-02
    5    3    0.55751059E-02 -0.56673504E-04
    6    3   -0.31591431E-02  0.19122429E-04
    7    3    0.23583617E-01 -0.14318796E-03
    8    3    0.57086374E-02 -0.32187326E-04
    1    4    0.17217609E+00 -0.83662147E-03
    2    4    0.27069222E+00 -0.27703089E-02
    3    4    0.22972252E+00  0.90412247E-02
    4    4   -0.23801946E+00  0.98821614E-06
    5    4   -0.16040794E-01 -0.46400995E-03
    6    4   -0.53126011E-02 -0.17994704E-03
    7    4   -0.58491240E-02 -0.19482997E-03
    8    4    0.78305227E-01  0.26588160E-02
    1    5    0.78296660E-01 -0.26432827E-02
    2    5   -0.54657757E-02  0.21572910E-03
    3    5   -0.28843575E-01 -0.30002308E-03
    4    5    0.54621829E-02 -0.15678660E-03
    5    5   -0.13973553E+00 -0.24963902E-06
    6    5   -0.79979110E-01 -0.39628076E-03
    7    5   -0.31959809E+00 -0.13711687E-02
    8    5    0.78485696E-01  0.38986490E-03
    1    6   -0.55142953E-02  0.21004956E-03
    2    6    0.78237926E-01 -0.34584874E-02
    3    6   -0.24205571E-01 -0.13144950E-03
    4    6   -0.52598805E-02  0.17820903E-03
    5    6    0.38383376E-01 -0.19019377E-03
    6    6    0.64085426E-01  0.63826475E-07
    7    6    0.79032812E-01 -0.52560427E-04
    8    6    0.21001476E-01  0.28634456E-06
    1    7    0.16079061E-01 -0.60799576E-03
    2    7   -0.16167062E-01  0.70617795E-03
    3    7   -0.17147845E-02 -0.98189467E-05
    4    7    0.15670154E-01 -0.52177466E-03
    5    7   -0.73378577E-01  0.31490879E-03
    6    7   -0.39221895E-01 -0.26082030E-04
    7    7   -0.14065533E+00  0.15417026E-06
    8    7    0.38025631E-01  0.25718867E-04
    1    8    0.57103737E-02 -0.21796425E-03
    2    8   -0.58745815E-02  0.26117359E-03
    3    8   -0.20022769E-01 -0.10778868E-03
    4    8    0.78409101E-01 -0.26619220E-02
    5    8   -0.39112677E-01  0.19438575E-03
    6    8    0.20216168E-01 -0.26844117E-06
    7    8   -0.80951303E-01  0.54931027E-04
    8    8    0.63600953E-01 -0.33455379E-07

    0   -1    2
    1    1   -0.53148476E-01 -0.14705797E-06
    2    1   -0.38642432E-01  0.21071749E-03
    3    1    0.46617100E-01  0.20599574E-02
    4    1    0.46663787E-01  0.22339504E-03
    5    1    0.78339643E-01  0.26492113E-02
    6    1   -0.56799993E-02 -0.21912880E-03
    7    1   -0.53416228E-02 -0.20271712E-03
    8    1   -0.15919774E-01 -0.61573457E-03
    1    2    0.21743754E-01  0.11759475E-03
    2    2    0.64198083E-01  0.18339561E-05
    3    2   -0.46604055E-01 -0.23136081E-02
    4    2    0.21754326E-01  0.22452977E-03
    5    2   -0.55292612E-02 -0.22081068E-03
    6    2    0.78361002E-01  0.34685261E-02
    7    2    0.52632929E-02  0.23319851E-03
    8    2    0.15726480E-01  0.70042320E-03
    1    3   -0.68035430E-01  0.30061343E-02
    2    3    0.11148036E+00 -0.55358857E-02
    3    3   -0.53148458E-01 -0.29958283E-06
    4    3   -0.11153117E+00  0.43949281E-02
    5    3    0.50681737E+00 -0.52461016E-02
    6    3    0.89975205E-01 -0.48540695E-03
    7    3    0.64030860E-01 -0.37637494E-03
    8    3   -0.90035766E-01  0.49067241E-03
    1    4    0.46663436E-01 -0.22454098E-03
    2    4   -0.38641695E-01  0.39285498E-03
    3    4   -0.21739538E-01 -0.85513803E-03
    4    4   -0.53151187E-01 -0.16941431E-05
    5    4    0.21754108E+00  0.63118300E-02
    6    4   -0.21847785E+00 -0.74206995E-02
    7    4   -0.21563638E+00 -0.71829501E-02
    8    4   -0.21816900E+00 -0.74136702E-02
    1    5    0.17833591E-02 -0.62435873E-04
    2    5   -0.56239533E-02  0.21976133E-03
    3    5   -0.20028508E-01 -0.20512721E-03
    4    5   -0.89426996E-02  0.25919454E-03
    5    5    0.21799688E-02  0.52976800E-06
    6    5    0.11860406E-01  0.58853615E-04
    7    5    0.74943912E-04  0.23556427E-06
    8    5   -0.14408791E-03 -0.66471611E-06
    1    6    0.28938177E-01 -0.11214464E-02
    2    6   -0.23557422E-01  0.10434504E-02
    3    6   -0.24244473E-01 -0.13127449E-03
    4    6    0.55629251E-01 -0.18896578E-02
    5    6    0.69405762E-02 -0.34794167E-04
    6    6    0.27794300E-01 -0.26564361E-06
    7    6   -0.69992857E-02  0.47252430E-05
    8    6    0.68229846E-02  0.49206046E-06
    1    7    0.19887967E-01 -0.76003303E-03
    2    7    0.56650717E-02 -0.24712042E-03
    3    7   -0.16466304E-02 -0.83545626E-05
    4    7    0.87436736E-02 -0.29101094E-03
    5    7    0.87621405E-04 -0.50581538E-06
    6    7   -0.11928825E-01 -0.80439721E-05
    7    7    0.22136456E-02  0.13356023E-06
    8    7    0.12819508E-03  0.25803554E-06
    1    8    0.24131514E-01 -0.93612667E-03
    2    8   -0.31418651E-02  0.13986318E-03
    3    8   -0.28774353E-01 -0.15545742E-03
    4    8    0.20204684E-01 -0.68617311E-03
    5    8   -0.12531833E-03  0.41187754E-06
    6    8    0.11720234E-01 -0.40091749E-06
    7    8    0.10544965E-03  0.16398381E-06
    8    8    0.21136792E-02 -0.90857508E-07

    0    0   -1
    1    1    0.71079550E+00  0.19343347E-04
    2    1   -0.17216885E+00  0.91642921E-03
    3    1    0.38606954E-01  0.17036681E-02
    4    1   -0.48647374E+00 -0.23460618E-02
    5    1   -0.63572063E-01 -0.20900350E-02
    6    1   -0.50644380E+00 -0.19698339E-01
    7    1    0.91857637E-01  0.35125038E-02
    8    1   -0.88437850E-01 -0.34505136E-02
    1    2    0.46137199E+00  0.25357856E-02
    2    2   -0.23802827E+00 -0.11485168E-04
    3    2   -0.38596026E-01 -0.19176495E-02
    4    2   -0.17219345E+00 -0.17755444E-02
    5    2   -0.50642013E+00 -0.19814891E-01
    6    2   -0.62836361E-01 -0.28330669E-02
    7    2   -0.91165298E-01 -0.39530232E-02
    8    2    0.89788588E-01  0.39636617E-02
    1    3   -0.46090582E+00  0.20336145E-01
    2    3   -0.17198141E+00  0.85071972E-02
    3    3   -0.23810327E+00 -0.12629763E-04
    4    3   -0.27052075E+00  0.10635254E-01
    5    3   -0.20778586E+01  0.21500509E-01
    6    3   -0.90614419E+00  0.48850005E-02
    7    3   -0.13436532E+00  0.81196336E-03
    8    3   -0.20783346E+01  0.11165040E-01
    1    4   -0.17855678E+01  0.85822765E-02
    2    4    0.46134174E+00 -0.47056512E-02
    3    4    0.38607610E-01  0.15208983E-02
    4    4    0.71080925E+00  0.50129824E-05
    5    4   -0.20759458E+01 -0.60185758E-01
    6    4    0.20773488E+01  0.70556232E-01
    7    4   -0.90865374E+00 -0.30254254E-01
    8    4    0.13029816E+00  0.44242647E-02
    1    5    0.18678202E-02 -0.64223026E-04
    2    5   -0.56188165E-02  0.21712273E-03
    3    5    0.13832362E+00  0.14321815E-02
    4    5   -0.19993541E-01  0.58207947E-03
    5    5   -0.14044962E+00 -0.11496496E-06
    6    5    0.39218242E-01  0.19435565E-03
    7    5    0.38081482E-01  0.16363025E-03
    8    5    0.73376866E-01  0.36467890E-03
    1    6    0.28697537E-01 -0.11121303E-02
    2    6   -0.23574004E-01  0.10442143E-02
    3    6    0.11573323E-01  0.63219352E-04
    4    6    0.28774279E-01 -0.97742623E-03
    5    6   -0.78733618E-01  0.39001932E-03
    6    6    0.63649029E-01  0.76256685E-07
    7    6   -0.21147482E-01  0.14140078E-04
    8    6    0.37966937E-01  0.44902877E-06
    1    7   -0.24128384E-01  0.91973211E-03
    2    7    0.32946621E-02 -0.14252349E-03
    3    7    0.52003106E-02  0.29662861E-04
    4    7   -0.24254681E-01  0.80625248E-03
    5    7   -0.80909965E-01  0.34701382E-03
    6    7   -0.20066845E-01 -0.13220613E-04
    7    7    0.64033830E-01 -0.40251940E-07
    8    7    0.39474866E-01  0.26697208E-04
    1    8   -0.20195574E-01  0.78346989E-03
    2    8   -0.55245622E-02  0.24458402E-03
    3    8   -0.11586826E-01 -0.62661554E-04
    4    8    0.15965341E-02 -0.55057306E-04
    5    8    0.31959554E+00 -0.15876477E-02
    6    8   -0.80659481E-01  0.96730085E-06
    7    8   -0.78145283E-01  0.52769790E-04
    8    8   -0.13993838E+00 -0.16243767E-06

    0    0    0
    1    1    0.14834813E+02  0.13504945E-17
    2    1    0.49653738E+00 -0.27126150E-02
    3    1   -0.27047216E+00 -0.11944850E-01
    4    1   -0.49653990E+00 -0.23735636E-02
    5    1    0.14570731E+00  0.49093526E-02
    6    1    0.20690338E+01  0.80205782E-01
    7    1   -0.89685412E+00 -0.34182044E-01
    8    1   -0.20868710E+01 -0.80912122E-01
    1    2    0.49653738E+00  0.27126150E-02
    2    2    0.14834811E+02 -0.86653009E-16
    3    2   -0.17198647E+00 -0.85164726E-02
    4    2    0.49652037E+00  0.50853120E-02
    5    2    0.90788739E-01  0.35590173E-02
    6    2   -0.64991324E-01 -0.28845094E-02
    7    2   -0.88062511E-01 -0.38299893E-02
    8    2   -0.50638134E+00 -0.22364545E-01
    1    3   -0.27047216E+00  0.11944850E-01
    2    3   -0.17198647E+00  0.85164726E-02
    3    3    0.14834810E+02  0.73496184E-16
    4    3   -0.46108748E+00  0.18141586E-01
    5    3   -0.11787691E-01  0.12082525E-03
    6    3    0.12146630E-01 -0.66683794E-04
    7    3    0.44286458E-02 -0.26863992E-04
    8    3    0.13831922E+00 -0.74619007E-03
    1    4   -0.49653990E+00  0.23735636E-02
    2    4    0.49652037E+00 -0.50853120E-02
    3    4   -0.46108748E+00 -0.18141586E-01
    4    4    0.14834810E+02 -0.86943654E-16
    5    4   -0.90726201E-01 -0.26376269E-02
    6    4   -0.50645649E+00 -0.17220845E-01
    7    4    0.91743356E-01  0.30617326E-02
    8    4   -0.61411399E-01 -0.20539369E-02
    1    5    0.14570731E+00 -0.49093526E-02
    2    5    0.90788739E-01 -0.35590173E-02
    3    5   -0.11787691E-01 -0.12082525E-03
    4    5   -0.90726201E-01  0.26376269E-02
    5    5   -0.35292885E+01 -0.90044663E-17
    6    5    0.47163755E+01  0.23370604E-01
    7    5    0.47163916E+01  0.20234180E-01
    8    5   -0.47163773E+01 -0.23426879E-01
    1    6    0.20690338E+01 -0.80205782E-01
    2    6   -0.64991324E-01  0.28845094E-02
    3    6    0.12146630E-01  0.66683794E-04
    4    6   -0.50645649E+00  0.17220845E-01
    5    6    0.47163755E+01 -0.23370604E-01
    6    6   -0.35292957E+01  0.20619589E-16
    7    6   -0.47164374E+01  0.31364698E-02
    8    6    0.47164391E+01  0.56254918E-04
    1    7   -0.89685412E+00  0.34182044E-01
    2    7   -0.88062511E-01  0.38299893E-02
    3    7    0.44286458E-02  0.26863992E-04
    4    7    0.91743356E-01 -0.30617326E-02
    5    7    0.47163916E+01 -0.20234180E-01
    6    7   -0.47164374E+01 -0.31364698E-02
    7    7   -0.35292992E+01 -0.71788128E-16
    8    7    0.47164398E+01  0.31927254E-02
    1    8   -0.20868710E+01  0.80912122E-01
    2    8   -0.50638134E+00  0.22364545E-01
    3    8    0.13831922E+00  0.74619007E-03
    4    8   -0.61411399E-01  0.20539369E-02
    5    8   -0.47163773E+01  0.23426879E-01
    6    8    0.47164391E+01 -0.56254918E-04
    7    8    0.47164398E+01 -0.31927254E-02
    8    8   -0.35293003E+01  0.42040114E-16

    0    0    1
    1    1    0.71079550E+00 -0.19343347E-04
    2    1    0.46137199E+00 -0.25357856E-02
    3    1   -0.46090582E+00 -0.20336145E-01
    4    1   -0.17855678E+01 -0.85822765E-02
    5    1    0.18678202E-02  0.64223026E-04
    6    1    0.28697537E-01  0.11121303E-02
    7    1   -0.24128384E-01 -0.91973211E-03
    8    1   -0.20195574E-01 -0.78346989E-03
    1    2   -0.17216885E+00 -0.91642921E-03
    2    2   -0.23802827E+00  0.11485168E-04
    3    2   -0.17198141E+00 -0.85071972E-02
    4    2    0.46134174E+00  0.47056512E-02
    5    2   -0.56188165E-02 -0.21712273E-03
    6    2   -0.23574004E-01 -0.10442143E-02
    7    2    0.32946621E-02  0.14252349E-03
    8    2   -0.55245622E-02 -0.24458402E-03
    1    3    0.38606954E-01 -0.17036681E-02
    2    3   -0.38596026E-01  0.19176495E-02
    3    3   -0.23810327E+00  0.12629763E-04
    4    3    0.38607610E-01 -0.15208983E-02
    5    3    0.13832362E+00 -0.14321815E-02
    6    3    0.11573323E-01 -0.63219352E-04
    7    3    0.52003106E-02 -0.29662861E-04
    8    3   -0.11586826E-01  0.62661554E-04
    1    4   -0.48647374E+00  0.23460618E-02
    2    4   -0.17219345E+00  0.17755444E-02
    3    4   -0.27052075E+00 -0.10635254E-01
    4    4    0.71080925E+00 -0.50129824E-05
    5    4   -0.19993541E-01 -0.58207947E-03
    6    4    0.28774279E-01  0.97742623E-03
    7    4   -0.24254681E-01 -0.80625248E-03
    8    4    0.15965341E-02  0.55057306E-04
    1    5   -0.63572063E-01  0.20900350E-02
    2    5   -0.50642013E+00  0.19814891E-01
    3    5   -0.20778586E+01 -0.21500509E-01
    4    5   -0.20759458E+01  0.60185758E-01
    5    5   -0.14044962E+00  0.11496496E-06
    6    5   -0.78733618E-01 -0.39001932E-03
    7    5   -0.80909965E-01 -0.34701382E-03
    8    5    0.31959554E+00  0.15876477E-02
    1    6   -0.50644380E+00  0.19698339E-01
    2    6   -0.62836361E-01  0.28330669E-02
    3    6   -0.90614419E+00 -0.48850005E-02
    4    6    0.20773488E+01 -0.70556232E-01
    5    6    0.39218242E-01 -0.19435565E-03
    6    6    0.63649029E-01 -0.76256685E-07
    7    6   -0.20066845E-01  0.13220613E-04
    8    6   -0.80659481E-01 -0.96730085E-06
    1    7    0.91857637E-01 -0.35125038E-02
    2    7   -0.91165298E-01  0.39530232E-02
    3    7   -0.13436532E+00 -0.81196336E-03
    4    7   -0.90865374E+00  0.30254254E-01
    5    7    0.38081482E-01 -0.16363025E-03
    6    7   -0.21147482E-01 -0.14140078E-04
    7    7    0.64033830E-01  0.40251940E-07
    8    7   -0.78145283E-01 -0.52769790E-04
    1    8   -0.88437850E-01  0.34505136E-02
    2    8    0.89788588E-01 -0.39636617E-02
    3    8   -0.20783346E+01 -0.11165040E-01
    4    8    0.13029816E+00 -0.44242647E-02
    5    8    0.73376866E-01 -0.36467890E-03
    6    8    0.37966937E-01 -0.44902877E-06
    7    8    0.39474866E-01 -0.26697208E-04
    8    8   -0.13993838E+00  0.16243767E-06

    0    1   -2
    1    1   -0.53148476E-01  0.14705797E-06
    2    1    0.21743754E-01 -0.11759475E-03
    3    1   -0.68035430E-01 -0.30061343E-02
    4    1    0.46663436E-01  0.22454098E-03
    5    1    0.17833591E-02  0.62435873E-04
    6    1    0.28938177E-01  0.11214464E-02
    7    1    0.19887967E-01  0.76003303E-03
    8    1    0.24131514E-01  0.93612667E-03
    1    2   -0.38642432E-01 -0.21071749E-03
    2    2    0.64198083E-01 -0.18339561E-05
    3    2    0.11148036E+00  0.55358857E-02
    4    2   -0.38641695E-01 -0.39285498E-03
    5    2   -0.56239533E-02 -0.21976133E-03
    6    2   -0.23557422E-01 -0.10434504E-02
    7    2    0.56650717E-02  0.24712042E-03
    8    2   -0.31418651E-02 -0.13986318E-03
    1    3    0.46617100E-01 -0.20599574E-02
    2    3   -0.46604055E-01  0.23136081E-02
    3    3   -0.53148458E-01  0.29958283E-06
    4    3   -0.21739538E-01  0.85513803E-03
    5    3   -0.20028508E-01  0.20512721E-03
    6    3   -0.24244473E-01  0.13127449E-03
    7    3   -0.16466304E-02  0.83545626E-05
    8    3   -0.28774353E-01  0.15545742E-03
    1    4    0.46663787E-01 -0.22339504E-03
    2    4    0.21754326E-01 -0.22452977E-03
    3    4   -0.11153117E+00 -0.43949281E-02
    4    4   -0.53151187E-01  0.16941431E-05
    5    4   -0.89426996E-02 -0.25919454E-03
    6    4    0.55629251E-01  0.18896578E-02
    7    4    0.87436736E-02  0.29101094E-03
    8    4    0.20204684E-01  0.68617311E-03
    1    5    0.78339643E-01 -0.26492113E-02
    2    5   -0.55292612E-02  0.22081068E-03
    3    5    0.50681737E+00  0.52461016E-02
    4    5    0.21754108E+00 -0.63118300E-02
    5    5    0.21799688E-02 -0.52976800E-06
    6    5    0.69405762E-02  0.34794167E-04
    7    5    0.87621405E-04  0.50581538E-06
    8    5   -0.12531833E-03 -0.41187754E-06
    1    6   -0.56799993E-02  0.21912880E-03
    2    6    0.78361002E-01 -0.34685261E-02
    3    6    0.89975205E-01  0.48540695E-03
    4    6   -0.21847785E+00  0.74206995E-02
    5    6    0.11860406E-01 -0.58853615E-04
    6    6    0.27794300E-01  0.26564361E-06
    7    6   -0.11928825E-01  0.80439721E-05
    8    6    0.11720234E-01  0.40091749E-06
    1    7   -0.53416228E-02  0.20271712E-03
    2    7    0.52632929E-02 -0.23319851E-03
    3    7    0.64030860E-01  0.37637494E-03
    4    7   -0.21563638E+00  0.71829501E-02
    5    7    0.74943912E-04 -0.23556427E-06
    6    7   -0.69992857E-02 -0.47252430E-05
    7    7    0.22136456E-02 -0.13356023E-06
    8    7    0.10544965E-03 -0.16398381E-06
    1    8   -0.15919774E-01  0.61573457E-03
    2    8    0.15726480E-01 -0.70042320E-03
    3    8   -0.90035766E-01 -0.49067241E-03
    4    8   -0.21816900E+00  0.74136702E-02
    5    8   -0.14408791E-03  0.66471611E-06
    6    8    0.68229846E-02 -0.49206046E-06
    7    8    0.12819508E-03 -0.25803554E-06
    8    8    0.21136792E-02  0.90857508E-07

    0    1   -1
    1    1    0.71081520E+00  0.27614057E-04
    2    1   -0.17220458E+00  0.92485185E-03
    3    1   -0.11151043E+00 -0.49280231E-02
    4    1    0.17217609E+00  0.83662147E-03
    5    1    0.78296660E-01  0.26432827E-02
    6    1   -0.55142953E-02 -0.21004956E-03
    7    1    0.16079061E-01  0.60799576E-03
    8    1    0.57103737E-02  0.21796425E-03
    1    2    0.46145044E+00  0.25074121E-02
    2    2   -0.23811261E+00  0.61090526E-07
    3    2    0.11148105E+00  0.55347901E-02
    4    2    0.27069222E+00  0.27703089E-02
    5    2   -0.54657757E-02 -0.21572910E-03
    6    2    0.78237926E-01  0.34584874E-02
    7    2   -0.16167062E-01 -0.70617795E-03
    8    2   -0.58745815E-02 -0.26117359E-03
    1    3    0.22967858E+00 -0.10146240E-01
    2    3    0.68013356E-01 -0.33725093E-02
    3    3    0.71078941E+00 -0.26752029E-04
    4    3    0.22972252E+00 -0.90412247E-02
    5    3   -0.28843575E-01  0.30002308E-03
    6    3   -0.24205571E-01  0.13144950E-03
    7    3   -0.17147845E-02  0.98189467E-05
    8    3   -0.20022769E-01  0.10778868E-03
    1    4   -0.46136536E+00  0.22197075E-02
    2    4    0.27072065E+00 -0.27695847E-02
    3    4   -0.68042730E-01 -0.26778349E-02
    4    4   -0.23801946E+00 -0.98821614E-06
    5    4    0.54621829E-02  0.15678660E-03
    6    4   -0.52598805E-02 -0.17820903E-03
    7    4    0.15670154E-01  0.52177466E-03
    8    4    0.78409101E-01  0.26619220E-02
    1    5   -0.21817685E+00  0.73779739E-02
    2    5    0.16027294E-01 -0.62955727E-03
    3    5    0.55751059E-02  0.56673504E-04
    4    5   -0.16040794E-01  0.46400995E-03
    5    5   -0.13973553E+00  0.24963902E-06
    6    5    0.38383376E-01  0.19019377E-03
    7    5   -0.73378577E-01 -0.31490879E-03
    8    5   -0.39112677E-01 -0.19438575E-03
    1    6   -0.21691920E+00  0.84089917E-02
    2    6    0.78278195E-01 -0.34603984E-02
    3    6   -0.31591431E-02 -0.19122429E-04
    4    6   -0.53126011E-02  0.17994704E-03
    5    6   -0.79979110E-01  0.39628076E-03
    6    6    0.64085426E-01 -0.63826475E-07
    7    6   -0.39221895E-01  0.26082030E-04
    8    6    0.20216168E-01  0.26844117E-06
    1    7   -0.21772272E+00  0.82977810E-02
    2    7    0.54074299E-02 -0.23742260E-03
    3    7    0.23583617E-01  0.14318796E-03
    4    7   -0.58491240E-02  0.19482997E-03
    5    7   -0.31959809E+00  0.13711687E-02
    6    7    0.79032812E-01  0.52560427E-04
    7    7   -0.14065533E+00 -0.15417026E-06
    8    7   -0.80951303E-01 -0.54931027E-04
    1    8    0.21686772E+00 -0.84110004E-02
    2    8   -0.57366801E-02  0.25533440E-03
    3    8    0.57086374E-02  0.32187326E-04
    4    8    0.78305227E-01 -0.26588160E-02
    5    8    0.78485696E-01 -0.38986490E-03
    6    8    0.21001476E-01 -0.28634456E-06
    7    8    0.38025631E-01 -0.25718867E-04
    8    8    0.63600953E-01  0.33455379E-07

    0    1    0
    1    1   -0.23807541E+00  0.11442103E-04
    2    1    0.27072367E+00 -0.14840221E-02
    3    1    0.17200782E+00  0.75779664E-02
    4    1   -0.46141102E+00 -0.21840042E-02
    5    1    0.20384783E-01  0.68907744E-03
    6    1    0.55520109E-01  0.21527485E-02
    7    1    0.88547362E-02  0.33732571E-03
    8    1   -0.90972105E-02 -0.35235044E-03
    1    2    0.27070772E+00  0.14601468E-02
    2    2   -0.23805773E+00  0.11790656E-04
    3    2    0.48588218E+00  0.24097676E-01
    4    2    0.46136537E+00  0.47065991E-02
    5    2   -0.32411067E-02 -0.12874045E-03
    6    2   -0.23570026E-01 -0.10434474E-02
    7    2    0.56789078E-02  0.24546937E-03
    8    2   -0.55121404E-02 -0.24418059E-03
    1    3   -0.21720429E-01  0.95796462E-03
    2    3   -0.46602659E-01  0.23135513E-02
    3    3    0.71084153E+00 -0.17638666E-04
    4    3    0.46633027E-01 -0.18366084E-02
    5    3    0.18739137E-01 -0.19350958E-03
    6    3   -0.18603063E-01  0.10016243E-03
    7    3    0.87342436E-01 -0.52697003E-03
    8    3    0.19368200E-01 -0.10487915E-03
    1    4    0.17217844E+00 -0.83933641E-03
    2    4   -0.17218077E+00  0.17747090E-02
    3    4    0.17206897E+00  0.67538223E-02
    4    4    0.71076421E+00 -0.58752797E-05
    5    4    0.24132389E-01  0.69997956E-03
    6    4    0.28850973E-01  0.98027979E-03
    7    4    0.19976623E-01  0.66605530E-03
    8    4    0.17934895E-02  0.62001092E-04
    1    5    0.13955210E+00 -0.47135765E-02
    2    5    0.89518880E-01 -0.34966202E-02
    3    5   -0.90782120E-01 -0.93905317E-03
    4    5    0.89852951E+00 -0.26058782E-01
    5    5    0.63892218E-01  0.62783697E-07
    6    5    0.20827846E-01  0.10353265E-03
    7    5    0.38625322E-01  0.16527128E-03
    8    5    0.80215695E-01  0.39834548E-03
    1    6    0.20850767E+01 -0.80874041E-01
    2    6   -0.61734277E-01  0.27826651E-02
    3    6    0.92188576E-01  0.48111070E-03
    4    6    0.20827284E+01 -0.70736871E-01
    5    6    0.20397862E-01 -0.10122581E-03
    6    6    0.63793154E-01 -0.72213693E-07
    7    6   -0.39104127E-01  0.26030271E-04
    8    6   -0.81192079E-01 -0.80019655E-06
    1    7    0.20694242E+01 -0.78863916E-01
    2    7    0.50628470E+00 -0.21985588E-01
    3    7    0.61017379E-01  0.40206648E-03
    4    7    0.20735390E+01 -0.69019265E-01
    5    7   -0.78968954E-01  0.33879486E-03
    6    7    0.78080490E-01  0.51913332E-04
    7    7   -0.13887070E+00  0.17453146E-06
    8    7   -0.31959541E+00 -0.21651390E-03
    1    8    0.90149195E+00 -0.34976348E-01
    2    8    0.92528896E-01 -0.40838825E-02
    3    8    0.50672611E+00  0.26944403E-02
    4    8    0.14388456E+00 -0.48847618E-02
    5    8   -0.38787544E-01  0.19240934E-03
    6    8    0.38214833E-01 -0.49400437E-06
    7    8   -0.73374225E-01  0.49846788E-04
    8    8   -0.14151922E+00  0.11608656E-06

    0    1    1
    1    1   -0.53148476E-01  0.14705797E-06
    2    1    0.21743754E-01 -0.11759476E-03
    3    1   -0.68035429E-01 -0.30061343E-02
    4    1    0.46663435E-01  0.22454098E-03
    5    1    0.17833591E-02  0.62435873E-04
    6    1    0.28938177E-01  0.11214464E-02
    7    1    0.19887967E-01  0.76003303E-03
    8    1    0.24131514E-01  0.93612667E-03
    1    2   -0.38642432E-01 -0.21071749E-03
    2    2    0.64198083E-01 -0.18339561E-05
    3    2    0.11148036E+00  0.55358857E-02
    4    2   -0.38641695E-01 -0.39285498E-03
    5    2   -0.56239533E-02 -0.21976133E-03
    6    2   -0.23557422E-01 -0.10434504E-02
    7    2    0.56650717E-02  0.24712042E-03
    8    2   -0.31418651E-02 -0.13986318E-03
    1    3    0.46617100E-01 -0.20599574E-02
    2    3   -0.46604055E-01  0.23136081E-02
    3    3   -0.53148458E-01  0.29958283E-06
    4    3   -0.21739538E-01  0.85513804E-03
    5    3   -0.20028508E-01  0.20512721E-03
    6    3   -0.24244473E-01  0.13127449E-03
    7    3   -0.16466304E-02  0.83545624E-05
    8    3   -0.28774353E-01  0.15545742E-03
    1    4    0.46663787E-01 -0.22339504E-03
    2    4    0.21754326E-01 -0.22452977E-03
    3    4   -0.11153117E+00 -0.43949281E-02
    4    4   -0.53151187E-01  0.16941431E-05
    5    4   -0.89426996E-02 -0.25919454E-03
    6    4    0.55629251E-01  0.18896578E-02
    7    4    0.87436736E-02  0.29101094E-03
    8    4    0.20204684E-01  0.68617311E-03
    1    5    0.78339644E-01 -0.26492113E-02
    2    5   -0.55292612E-02  0.22081068E-03
    3    5    0.50681737E+00  0.52461016E-02
    4    5    0.21754108E+00 -0.63118300E-02
    5    5    0.21799689E-02 -0.52976800E-06
    6    5    0.69405762E-02  0.34794166E-04
    7    5    0.87621445E-04  0.50581556E-06
    8    5   -0.12531828E-03 -0.41187733E-06
    1    6   -0.56799985E-02  0.21912876E-03
    2    6    0.78361002E-01 -0.34685261E-02
    3    6    0.89975205E-01  0.48540695E-03
    4    6   -0.21847785E+00  0.74206995E-02
    5    6    0.11860406E-01 -0.58853616E-04
    6    6    0.27794300E-01  0.26564361E-06
    7    6   -0.11928825E-01  0.80439721E-05
    8    6    0.11720234E-01  0.40091749E-06
    1    7   -0.53416220E-02  0.20271709E-03
    2    7    0.52632931E-02 -0.23319852E-03
    3    7    0.64030860E-01  0.37637494E-03
    4    7   -0.21563638E+00  0.71829501E-02
    5    7    0.74944000E-04 -0.23556465E-06
    6    7   -0.69992857E-02 -0.47252430E-05
    7    7    0.22136456E-02 -0.13356023E-06
    8    7    0.10544957E-03 -0.16398387E-06
    1    8   -0.15919774E-01  0.61573456E-03
    2    8    0.15726480E-01 -0.70042320E-03
    3    8   -0.90035766E-01 -0.49067241E-03
    4    8   -0.21816900E+00  0.74136702E-02
    5    8   -0.14408795E-03  0.66471632E-06
    6    8    0.68229846E-02 -0.49206046E-06
    7    8    0.12819504E-03 -0.25803552E-06
    8    8    0.21136791E-02  0.90857508E-07

    0    2   -1
    1    1   -0.53148476E-01 -0.14705796E-06
    2    1   -0.38642432E-01  0.21071749E-03
    3    1    0.46617100E-01  0.20599574E-02
    4    1    0.46663787E-01  0.22339504E-03
    5    1    0.78339644E-01  0.26492113E-02
    6    1   -0.56799983E-02 -0.21912876E-03
    7    1   -0.53416220E-02 -0.20271709E-03
    8    1   -0.15919774E-01 -0.61573456E-03
    1    2    0.21743754E-01  0.11759476E-03
    2    2    0.64198083E-01  0.18339561E-05
    3    2   -0.46604055E-01 -0.23136081E-02
    4    2    0.21754326E-01  0.22452977E-03
    5    2   -0.55292610E-02 -0.22081067E-03
    6    2    0.78361002E-01  0.34685261E-02
    7    2    0.52632931E-02  0.23319852E-03
    8    2    0.15726480E-01  0.70042320E-03
    1    3   -0.68035429E-01  0.30061343E-02
    2    3    0.11148036E+00 -0.55358857E-02
    3    3   -0.53148457E-01 -0.29958283E-06
    4    3   -0.11153117E+00  0.43949281E-02
    5    3    0.50681737E+00 -0.52461016E-02
    6    3    0.89975205E-01 -0.48540695E-03
    7    3    0.64030860E-01 -0.37637494E-03
    8    3   -0.90035766E-01  0.49067241E-03
    1    4    0.46663436E-01 -0.22454098E-03
    2    4   -0.38641695E-01  0.39285498E-03
    3    4   -0.21739538E-01 -0.85513804E-03
[...]
    2    2    0.15412954E-03  0.56052570E-07 -0.65707813E-03 -0.12823675E-07 -0.15420565E-03 -0.51695638E-07
    3    2   -0.52937449E-02 -0.26268639E-03 -0.12678955E-01 -0.62949252E-03 -0.88058638E-02 -0.43669462E-03
    4    2    0.13852914E-02  0.14193219E-04  0.86644573E-03  0.87880377E-05 -0.13853309E-02 -0.14192333E-04
    5    2    0.75703391E-02  0.29702668E-03  0.34713787E-02  0.13616189E-03 -0.34791191E-02 -0.13649704E-03
    6    2    0.68397597E-02  0.30232367E-03  0.68543757E-02  0.30292038E-03 -0.68322378E-02 -0.30199692E-03
    7    2   -0.34866861E-02 -0.15176287E-03 -0.35073711E-02 -0.15263484E-03  0.75872265E-02  0.33028260E-03
    8    2    0.34394201E-02  0.15209848E-03  0.75326215E-02  0.33298150E-03 -0.34213146E-02 -0.15129960E-03
    1    3    0.30152906E-02 -0.13329851E-03  0.56391727E-03 -0.24932441E-04  0.72118465E-03 -0.31871316E-04
    2    3   -0.32443605E-02  0.16104192E-03 -0.76226389E-03  0.37897285E-04  0.99528735E-03 -0.49499668E-04
    3    3    0.65684547E-03  0.45085623E-08 -0.15397559E-03  0.11390652E-07 -0.15392248E-03  0.24817954E-07
    4    3    0.16160442E-02 -0.63691105E-04  0.19641532E-02 -0.77403468E-04 -0.12562208E-02  0.49485946E-04
    5    3   -0.90169218E-03  0.93946701E-05  0.20703830E-03 -0.21536286E-05 -0.12694972E-02  0.13033765E-04
    6    3   -0.11539310E-02  0.63165325E-05 -0.12746032E-02  0.69123301E-05  0.23429884E-02 -0.12689427E-04
    7    3    0.28629519E-02 -0.17330566E-04 -0.13740426E-02  0.83444016E-05  0.20843918E-02 -0.12604820E-04
    8    3    0.99047275E-03 -0.53107282E-05 -0.62849794E-03  0.33923604E-05  0.24606272E-02 -0.13214225E-04
    1    4    0.91554593E-03 -0.43871605E-05 -0.91571814E-03  0.43696107E-05 -0.58067376E-03  0.28066695E-05
    2    4   -0.91545098E-03  0.93904046E-05  0.58063203E-03 -0.59064381E-05  0.91555965E-03 -0.93742314E-05
    3    4    0.88095414E-02  0.34686973E-03  0.12684581E-01  0.49988048E-03  0.52961721E-02  0.20843943E-03
    4    4   -0.11513866E-02 -0.12906531E-07  0.11515661E-02  0.75479380E-07  0.11515014E-02  0.20979503E-07
    5    4    0.12284186E-02  0.35520999E-04  0.33907565E-02  0.98287412E-04 -0.22243958E-02 -0.64490901E-04
    6    4   -0.14947495E-03 -0.52150754E-05  0.32968340E-02  0.11183246E-03  0.14750561E-03  0.51462068E-05
    7    4   -0.22094211E-02 -0.73502210E-04 -0.33977859E-02 -0.11307063E-03  0.12110373E-02  0.40166142E-04
    8    4   -0.25197810E-02 -0.85704625E-04  0.24299132E-02  0.82398105E-04  0.25151700E-02  0.85543812E-04
    1    5   -0.42141068E-03  0.14237538E-04 -0.26579849E-03  0.89597790E-05 -0.64686154E-03  0.21864068E-04
    2    5   -0.78747188E-03  0.30904666E-04 -0.36339442E-03  0.14255881E-04 -0.98580254E-03  0.38690117E-04
    3    5   -0.25310880E-03 -0.26128672E-05  0.43276614E-03  0.43925248E-05 -0.25314964E-03 -0.26066342E-05
    4    5    0.61521325E-03 -0.17869884E-04 -0.14645557E-03  0.42521182E-05  0.51556071E-03 -0.14982082E-04
    5    5   -0.36704746E-04  0.24716629E-08  0.36305041E-04 -0.36192702E-08  0.21099360E-03 -0.24843518E-08
    6    5    0.48817188E-04  0.24128028E-06 -0.24348285E-03 -0.12112644E-05 -0.14825156E-03 -0.73371885E-06
    7    5    0.36491702E-03  0.15644319E-05  0.76821728E-04  0.33621471E-06 -0.16705782E-03 -0.71708788E-06
    8    5    0.33785656E-03  0.16773798E-05 -0.93112273E-04 -0.47173540E-06  0.16494449E-03  0.82084997E-06
    1    6    0.20382893E-03 -0.79200454E-05 -0.95004868E-03  0.36841238E-04  0.65075208E-03 -0.25244569E-04
    2    6   -0.20621197E-03  0.91096953E-05  0.19681050E-02 -0.87010459E-04  0.20285386E-03 -0.89651359E-05
    3    6   -0.50612787E-03 -0.27375582E-05  0.19001939E-03  0.85597305E-06 -0.36749253E-03 -0.20250007E-05
    4    6   -0.38641099E-03  0.13130632E-04 -0.71445659E-03  0.24284090E-04  0.38843387E-03 -0.13200057E-04
    5    6   -0.19021275E-03  0.94444582E-06 -0.28070185E-03  0.13923427E-05 -0.11036068E-03  0.54565564E-06
    6    6   -0.37441260E-04 -0.13843273E-08  0.21157219E-03  0.19189048E-08  0.37048388E-04  0.14468850E-08
    7    6   -0.10998707E-03  0.72695082E-07  0.28072718E-03 -0.18504459E-06 -0.19169619E-03  0.12857433E-06
    8    6    0.23870030E-04 -0.97992459E-09 -0.46958923E-04  0.27152438E-08 -0.24263357E-04 -0.49488808E-09
    1    7   -0.79164504E-03  0.30147286E-04  0.89605322E-03 -0.34173321E-04 -0.67529003E-03  0.25724083E-04
    2    7   -0.99303637E-03  0.43248786E-04  0.35692918E-03 -0.15569685E-04 -0.78423226E-03  0.34145612E-04
    3    7    0.23963693E-03  0.13730874E-05 -0.79830003E-04 -0.13068017E-05  0.23893879E-03  0.13823072E-05
    4    7    0.51753761E-03 -0.17271792E-04  0.14945043E-03 -0.49642499E-05  0.61615409E-03 -0.20532375E-04
    5    7    0.16915612E-03 -0.72509782E-06  0.75275663E-04 -0.32062543E-06 -0.36624911E-03  0.15711984E-05
    6    7   -0.14850663E-03 -0.98444417E-07  0.24453136E-03  0.16623907E-06  0.47785281E-04  0.31180090E-07
    7    7   -0.20988900E-03  0.27665518E-08  0.34962362E-04 -0.29880248E-08  0.35202699E-04 -0.22736654E-08
    8    7    0.16535605E-03  0.11163372E-06  0.93276114E-04  0.63185488E-07  0.33620934E-03  0.22568584E-06
    1    8   -0.20369158E-02  0.79049216E-04 -0.36111935E-03  0.13995155E-04 -0.57355239E-03  0.22287609E-04
    2    8    0.13141754E-02 -0.58109769E-04  0.44550327E-03 -0.19706041E-04 -0.13219437E-02  0.58461602E-04
    3    8    0.37208133E-03  0.20748636E-05 -0.19086292E-03 -0.52369734E-06  0.51008552E-03  0.27452172E-05
    4    8    0.54111960E-04 -0.18226105E-05 -0.32392983E-03  0.11005610E-04 -0.49019659E-04  0.16415141E-05
    5    8   -0.28328816E-03  0.14051935E-05  0.23321084E-03 -0.11561219E-05  0.20742276E-03 -0.10292853E-05
    6    8    0.27128032E-03 -0.43280650E-08 -0.16970961E-03  0.85252862E-08 -0.27189601E-03  0.46396826E-08
    7    8    0.20656679E-03 -0.13996082E-06 -0.23165187E-03  0.15033389E-06 -0.28354708E-03  0.19047079E-06
    8    8    0.27224332E-03 -0.25413933E-08 -0.27039226E-03  0.42755343E-08 -0.27102654E-03  0.24745439E-08

    2   -1    0
    1    1    0.11515356E-02 -0.86323249E-07 -0.11515822E-02  0.12303467E-06  0.11515166E-02 -0.95469428E-07
    2    1    0.58061041E-03 -0.31285862E-05 -0.91570478E-03  0.49857865E-05  0.91550013E-03 -0.49712258E-05
    3    1   -0.25267451E-01 -0.11164661E-02  0.32069925E-01  0.14185950E-02  0.39241256E-03  0.17099173E-04
    4    1   -0.91566722E-03 -0.43794080E-05  0.91560579E-03  0.43671243E-05 -0.58062217E-03 -0.28007893E-05
    5    1   -0.13639408E-02 -0.46175695E-04 -0.18183608E-02 -0.61493338E-04 -0.13637889E-02 -0.46156930E-04
    6    1    0.17954562E-02  0.69657053E-04 -0.56293618E-03 -0.21831815E-04  0.78619831E-03  0.30518935E-04
    7    1    0.58758005E-03  0.22393278E-04  0.70355482E-03  0.26830046E-04  0.59308582E-03  0.22650945E-04
    8    1   -0.79325565E-03 -0.30764580E-04  0.56989671E-03  0.22120266E-04 -0.17972984E-02 -0.69751662E-04
    1    2    0.86655386E-03  0.46344146E-05  0.13850820E-02  0.76258712E-05 -0.13848919E-02 -0.75616041E-05
    2    2   -0.65708325E-03  0.24124870E-07  0.15428156E-03 -0.14312670E-08 -0.15409749E-03 -0.34295214E-08
    3    2   -0.51699734E-01 -0.25651094E-02 -0.51699736E-01 -0.25651463E-02 -0.57546614E-02 -0.28596240E-03
    4    2    0.22690475E-02  0.23251065E-04 -0.19087785E-02 -0.19591821E-04 -0.14715227E-02 -0.15021902E-04
    5    2    0.87754965E-03  0.34406544E-04 -0.58031163E-03 -0.22772836E-04  0.40892097E-03  0.16072951E-04
    6    2    0.30447631E-03  0.13441465E-04  0.39135628E-03  0.17311118E-04 -0.87101858E-03 -0.38492998E-04
    7    2    0.15541781E-02  0.67607115E-04 -0.55287917E-03 -0.24078549E-04 -0.20268156E-02 -0.88212343E-04
    8    2   -0.14837238E-02 -0.65591901E-04 -0.52874214E-03 -0.23397030E-04  0.79711440E-03  0.35231916E-04
    1    3    0.41917933E-03 -0.18491286E-04 -0.96794647E-02  0.42741835E-03 -0.15709565E-02  0.69604154E-04
    2    3    0.13465632E-01 -0.66815084E-03  0.29003588E-02 -0.14401803E-03  0.83470171E-02 -0.41399877E-03
    3    3   -0.15419707E-03  0.43084555E-07  0.65713419E-03 -0.96690091E-08 -0.15427473E-03  0.36272234E-07
    4    3    0.26102465E-02 -0.10266126E-03  0.57190584E-02 -0.22481768E-03 -0.25124120E-02  0.99164857E-04
    5    3   -0.19222745E-02  0.19836894E-04 -0.15509781E-02  0.16079577E-04  0.41757865E-03 -0.42039727E-05
    6    3   -0.27507805E-02  0.14730137E-04 -0.30332288E-02  0.16439000E-04  0.12182167E-02 -0.64006511E-05
    7    3   -0.15972540E-02  0.95465140E-05 -0.25502741E-02  0.15522860E-04 -0.22205803E-02  0.13736070E-04
    8    3   -0.10690817E-02  0.56629977E-05 -0.24133113E-02  0.13053569E-04 -0.32655620E-03  0.18938912E-05
    1    4    0.13850838E-02 -0.67213535E-05 -0.13849480E-02  0.65863467E-05 -0.86657370E-03  0.41937398E-05
    2    4   -0.14715158E-02  0.15009255E-04 -0.19091564E-02  0.19501285E-04  0.22690288E-02 -0.23182396E-04
    3    4    0.32075128E-01  0.12640253E-02 -0.25273193E-01 -0.99406068E-03  0.39272895E-03  0.15629173E-04
    4    4   -0.15417749E-03  0.15544499E-07  0.15406212E-03 -0.15517882E-07 -0.65703430E-03  0.99412025E-08
    5    4   -0.40905189E-03 -0.11896253E-04  0.58065790E-03  0.16866431E-04 -0.87752626E-03 -0.25438623E-04
    6    4    0.80460876E-03  0.27302929E-04 -0.52258035E-03 -0.17767540E-04 -0.14917994E-02 -0.50658462E-04
    7    4    0.20267459E-02  0.67466337E-04  0.55419562E-03  0.18460598E-04 -0.15496881E-02 -0.51545498E-04
    8    4   -0.86460498E-03 -0.29370070E-04  0.39895915E-03  0.13565509E-04  0.30261413E-03  0.10274315E-04
    1    5   -0.21328210E-03  0.72475749E-05  0.22210461E-02 -0.75123332E-04 -0.21263530E-03  0.71978123E-05
    2    5    0.11555274E-02 -0.45339517E-04  0.61782230E-03 -0.24183629E-04  0.28646655E-03 -0.11235503E-04
    3    5   -0.79355226E-03 -0.82365705E-05  0.49537159E-03  0.51765346E-05  0.66841409E-03  0.69448841E-05
    4    5   -0.28717982E-03  0.83674146E-05 -0.61843836E-03  0.17991276E-04 -0.11559152E-02  0.33558403E-04
    5    5   -0.27137593E-03  0.17348796E-08  0.27085594E-03 -0.17952674E-08 -0.27140582E-03  0.16370453E-08
    6    5    0.29850639E-03  0.14745246E-05 -0.19939564E-03 -0.99414474E-06  0.25243936E-03  0.12491300E-05
    7    5    0.23734757E-03  0.10200657E-05 -0.26112553E-03 -0.11187114E-05  0.23766684E-03  0.10231344E-05
    8    5   -0.25281775E-03 -0.12559607E-05  0.19907690E-03  0.98784704E-06 -0.29858599E-03 -0.14815835E-05
    1    6    0.22361786E-02 -0.86672341E-04  0.22882782E-02 -0.88736831E-04 -0.14063504E-02  0.54494460E-04
    2    6    0.10974642E-02 -0.48444782E-04  0.36746110E-03 -0.16195366E-04  0.16580373E-02 -0.73327372E-04
    3    6   -0.89937605E-03 -0.48402431E-05 -0.21230902E-03 -0.11707794E-05  0.19087246E-02  0.10295891E-04
    4    6    0.22395829E-02 -0.76021357E-04  0.22971594E-02 -0.78009845E-04 -0.52245387E-03  0.17772359E-04
    5    6   -0.11927801E-04  0.59353449E-07 -0.12716607E-04  0.59200885E-07 -0.22844095E-03  0.11318684E-05
    6    6    0.21066915E-03 -0.10067117E-08 -0.36685057E-04  0.18724872E-08  0.35500320E-04 -0.23110182E-08
    7    6    0.17498995E-03 -0.11478180E-06  0.12493624E-06  0.16842456E-08 -0.44283899E-03  0.29844971E-06
    8    6   -0.15007640E-03 -0.10823923E-08 -0.31741382E-03 -0.14034678E-08  0.11692140E-03  0.13562552E-08
    1    7   -0.41641675E-02  0.15873826E-03 -0.29237860E-02  0.11158295E-03 -0.41428077E-02  0.15796161E-03
    2    7   -0.45815602E-03  0.19874286E-04  0.42550455E-02 -0.18533869E-03  0.28069322E-02 -0.12221889E-03
    3    7    0.12146093E-03  0.78260593E-06 -0.44272264E-03 -0.26826786E-05  0.27506210E-03  0.16962731E-05
    4    7   -0.28308880E-02  0.94237466E-04 -0.42719099E-02  0.14237506E-03  0.45482386E-03 -0.15109162E-04
    5    7    0.12900424E-03 -0.54981405E-06  0.12986609E-03 -0.55037267E-06  0.13045529E-03 -0.55528902E-06
    6    7    0.13527779E-03  0.90998213E-07 -0.38354730E-04 -0.25827376E-07 -0.20434127E-03 -0.13668512E-06
    7    7    0.36030297E-04  0.66053039E-09 -0.21113974E-03 -0.14609871E-08  0.37361372E-04  0.80907576E-09
    8    7    0.20088568E-03  0.13691370E-06  0.41803591E-04  0.28152845E-07 -0.13387139E-03 -0.91823965E-07
    1    8    0.13660419E-02 -0.52938182E-04 -0.23237894E-02  0.90164978E-04 -0.22546966E-02  0.87457102E-04
    2    8   -0.53082097E-03  0.23532880E-04  0.23233684E-02 -0.10278202E-03  0.22468488E-02 -0.99354295E-04
    3    8    0.31661318E-03  0.17023504E-05  0.79217946E-03  0.42648903E-05  0.87164348E-03  0.47029575E-05
    4    8    0.16274271E-02 -0.55292372E-04  0.32559365E-03 -0.11022526E-04  0.11036621E-02 -0.37487935E-04
    5    8    0.22924264E-03 -0.11400528E-05  0.13696039E-04 -0.71138782E-07  0.14223221E-04 -0.73402247E-07
    6    8    0.12492125E-03 -0.10617993E-08 -0.31762646E-03  0.63747257E-08 -0.15706063E-03  0.22317332E-08
    7    8    0.43772126E-03 -0.30003166E-06  0.28592669E-05 -0.75715067E-08 -0.16995606E-03  0.11188289E-06
    8    8    0.36786558E-04 -0.28411764E-08 -0.35328180E-04  0.24669922E-08  0.21064232E-03 -0.11627164E-08

    2    0   -1
    1    1    0.15408495E-03 -0.55438797E-07  0.65693972E-03 -0.13176818E-07  0.15402445E-03 -0.51151459E-07
    2    1   -0.19089115E-02  0.10241250E-04 -0.22692503E-02  0.12347512E-04  0.14715496E-02 -0.79689652E-05
    3    1   -0.30447709E-02 -0.13485592E-03 -0.24862740E-01 -0.10995214E-02  0.41962204E-02  0.18590428E-03
    4    1   -0.14717069E-02 -0.71411494E-05  0.22689882E-02  0.10875670E-04  0.19091563E-02  0.92500079E-05
    5    1   -0.60433117E-03 -0.20424114E-04  0.27975407E-03  0.94740233E-05 -0.60426929E-03 -0.20463668E-04
    6    1   -0.46706012E-04 -0.18271908E-05  0.27713795E-03  0.10761927E-04  0.68062857E-03  0.26447988E-04
    7    1    0.82880069E-03  0.31644395E-04  0.92871028E-03  0.35375367E-04  0.82442847E-03  0.31469806E-04
    8    1   -0.67493453E-03 -0.26236024E-04 -0.27366568E-03 -0.10642343E-04  0.48134185E-04  0.18461727E-05
    1    2   -0.19089086E-02 -0.10322230E-04  0.14717221E-02  0.80497953E-05 -0.22692814E-02 -0.12365262E-04
    2    2    0.15405343E-03  0.23106910E-07  0.15404803E-03  0.13401425E-07  0.65695146E-03 -0.86317344E-08
    3    2    0.10808085E-01  0.53637278E-03 -0.41870901E-01 -0.20785353E-02 -0.15452287E-01 -0.76525396E-03
    4    2    0.14716304E-02  0.15039519E-04 -0.19090497E-02 -0.19556049E-04 -0.22689584E-02 -0.23279612E-04
    5    2   -0.20256705E-02 -0.79454624E-04  0.55339581E-03  0.21725042E-04  0.15473261E-02  0.60666658E-04
    6    2    0.86834690E-03  0.38378502E-04  0.39337759E-03  0.17403065E-04 -0.29945198E-03 -0.13206661E-04
    7    2    0.40482201E-03  0.17656490E-04  0.58365759E-03  0.25402583E-04  0.87469059E-03  0.38075629E-04
    8    2   -0.80481461E-03 -0.35579387E-04 -0.52357944E-03 -0.23170005E-04  0.14934466E-02  0.66027405E-04
    1    3   -0.76748535E-02  0.33959152E-03  0.61586016E-02 -0.27185891E-03  0.32549914E-01 -0.14383001E-02
    2    3    0.15545617E-02 -0.76879836E-04  0.44569833E-02 -0.22137435E-03 -0.51195890E-02  0.25437215E-03
    3    3   -0.11516134E-02  0.10177215E-06 -0.11514750E-02  0.11671290E-06 -0.11514535E-02  0.67291546E-07
    4    3    0.29874721E-02 -0.11746938E-03 -0.11097407E-01  0.43705866E-03 -0.14182315E-02  0.56068328E-04
    5    3   -0.75850662E-02  0.78688279E-04  0.30775695E-02 -0.31914019E-04  0.60204826E-02 -0.62202592E-04
    6    3    0.50141501E-02 -0.27067705E-04 -0.23681143E-02  0.12857426E-04 -0.67598131E-02  0.36369420E-04
    7    3   -0.35993084E-02  0.21875063E-04  0.58224428E-03 -0.35654694E-05  0.17680750E-02 -0.10641099E-04
    8    3    0.54222477E-02 -0.29201544E-04 -0.29466454E-02  0.15917909E-04 -0.36227703E-02  0.19424683E-04
    1    4    0.22688846E-02 -0.10908827E-04 -0.14711957E-02  0.69528325E-05  0.19090699E-02 -0.91906531E-05
    2    4   -0.22688432E-02  0.23208978E-04 -0.19088779E-02  0.19436414E-04  0.14712963E-02 -0.15067465E-04
    3    4    0.50632604E-02  0.19915081E-03  0.14967720E-02  0.59217763E-04 -0.14968063E-02 -0.59532090E-04
    4    4    0.65715080E-03 -0.88604343E-08  0.15422742E-03 -0.18179867E-07  0.15423489E-03 -0.82817784E-08
    5    4   -0.15480472E-02 -0.44835032E-04 -0.55355084E-03 -0.16062520E-04  0.20264892E-02  0.58755671E-04
    6    4    0.14877923E-02  0.50519070E-04 -0.52459777E-03 -0.17836701E-04 -0.80126275E-03 -0.27189944E-04
    7    4   -0.88403696E-03 -0.29410092E-04 -0.58265154E-03 -0.19425541E-04 -0.40642091E-03 -0.13546634E-04
    8    4   -0.31507244E-03 -0.10708317E-04  0.39381090E-03  0.13385540E-04  0.87063123E-03  0.29579038E-04
    1    5    0.73098964E-04 -0.25426502E-05 -0.39531938E-02  0.13379848E-03  0.73554286E-04 -0.26020007E-05
    2    5    0.28189184E-02 -0.11063671E-03 -0.42647448E-02  0.16747051E-03 -0.46157088E-03  0.18021080E-04
    3    5    0.12106172E-02  0.12551349E-04  0.78746927E-03  0.81162246E-05  0.18004496E-02  0.18661641E-04
    4    5    0.46178547E-03 -0.13363106E-04  0.42658703E-02 -0.12383293E-03 -0.28196111E-02  0.81744644E-04
    5    5   -0.35851536E-04 -0.11764789E-08 -0.21048675E-03 -0.18753127E-08 -0.35868319E-04 -0.54116341E-09
    6    5   -0.20481222E-03 -0.10148168E-05  0.39560215E-04  0.19438383E-06  0.13472156E-03  0.66861558E-06
    7    5   -0.12897364E-03 -0.55624029E-06  0.12934684E-03  0.55963813E-06 -0.13121348E-03 -0.56810096E-06
    8    5   -0.13424617E-03 -0.66541050E-06 -0.39261717E-04 -0.20029204E-06  0.20324839E-03  0.10111380E-05
    1    6    0.22242433E-02 -0.86251410E-04  0.45428031E-03 -0.17571695E-04 -0.18745567E-02  0.72640997E-04
    2    6   -0.16521744E-02  0.73069994E-04  0.35789280E-03 -0.15757530E-04 -0.10962151E-02  0.48386780E-04
    3    6    0.61948991E-04  0.29713937E-06 -0.12927863E-02 -0.69829692E-05 -0.12984847E-02 -0.69760362E-05
    4    6    0.52081744E-03 -0.17715674E-04  0.23073784E-02 -0.78350513E-04 -0.22457311E-02  0.76223823E-04
    5    6   -0.44097515E-03  0.21880885E-05  0.92702104E-06 -0.56918253E-08  0.17351128E-03 -0.85909260E-06
    6    6   -0.35111998E-04  0.23735175E-08 -0.35887400E-04  0.19016850E-08 -0.21020991E-03  0.76586668E-09
    7    6   -0.22833437E-03  0.15697393E-06  0.15225428E-04 -0.13621729E-07 -0.12755178E-04  0.12057768E-07
    8    6   -0.12082077E-03 -0.10530548E-08 -0.31786606E-03 -0.40172870E-08  0.15088530E-03  0.67563880E-09
    1    7    0.13361650E-02 -0.50926794E-04 -0.41994286E-03  0.15913168E-04  0.13620821E-02 -0.51914725E-04
    2    7    0.30732872E-03 -0.13403655E-04 -0.64154368E-03  0.27974918E-04  0.11542804E-02 -0.50254165E-04
    3    7    0.10385801E-02  0.63207301E-05 -0.11365178E-02 -0.69038274E-05 -0.15889170E-02 -0.96261356E-05
    4    7   -0.11507997E-02  0.38331551E-04  0.62468012E-03 -0.20825044E-04 -0.28268965E-03  0.94436052E-05
    5    7   -0.23525170E-03  0.10068004E-05 -0.26117126E-03  0.11197668E-05 -0.23905196E-03  0.10239510E-05
    6    7    0.25183009E-03  0.16753992E-06  0.20116902E-03  0.13352563E-06  0.29864926E-03  0.19660765E-06
    7    7    0.27018871E-03 -0.34927405E-08  0.27157374E-03 -0.37457717E-08  0.27187917E-03 -0.38573466E-08
    8    7   -0.30052903E-03 -0.20029261E-06 -0.19798807E-03 -0.13526103E-06 -0.25106946E-03 -0.16969178E-06
    1    8    0.18696729E-02 -0.72504797E-04 -0.45954526E-03  0.17773134E-04 -0.22036868E-02  0.85484685E-04
    2    8   -0.22319594E-02  0.98685054E-04  0.22992163E-02 -0.10172206E-03  0.53500348E-03 -0.23698668E-04
    3    8   -0.49453236E-03 -0.26862167E-05  0.37072405E-03  0.19879060E-05  0.81062386E-03  0.43524296E-05
    4    8   -0.11071192E-02  0.37593734E-04  0.34827048E-03 -0.11817588E-04 -0.16413468E-02  0.55782308E-04
    5    8   -0.17205643E-03  0.85152726E-06 -0.28867078E-05  0.18808033E-07  0.43875206E-03 -0.21823546E-05
    6    8    0.15683295E-03 -0.14980480E-08 -0.31626041E-03  0.44662751E-08 -0.12190491E-03  0.32289961E-08
    7    8    0.12000882E-04 -0.89485198E-08 -0.10610883E-04  0.68208172E-08  0.23255423E-03 -0.15848964E-06
    8    8   -0.21175139E-03 -0.42111479E-09 -0.37230659E-04  0.58270973E-09 -0.37726756E-04  0.13271526E-08
