 written on 30Jul2024 at 13:47:54 
           8
          43
   -2    0    1    1    1    0.000154    0.000000    0.000657    0.000000    0.000154    0.000000
   -2    0    1    2    1   -0.001669    0.000009   -0.002247    0.000012    0.000523   -0.000003
   -2    0    1    3    1    0.041881    0.001850    0.015456    0.000683   -0.010811   -0.000478
   -2    0    1    4    1   -0.000523   -0.000002    0.002247    0.000011    0.001669    0.000008
   -2    0    1    5    1   -0.006586   -0.000223    0.006582    0.000223   -0.006586   -0.000223
   -2    0    1    6    1   -0.001931   -0.000075   -0.000415   -0.000016    0.000429    0.000017
   -2    0    1    7    1    0.000415    0.000016    0.001944    0.000074    0.000399    0.000015
   -2    0    1    8    1   -0.000414   -0.000016    0.000432    0.000017    0.001930    0.000075
   -2    0    1    1    2   -0.001669   -0.000009    0.000523    0.000003   -0.002247   -0.000012
   -2    0    1    2    2    0.000154   -0.000000    0.000154   -0.000000    0.000657    0.000000
   -2    0    1    3    2   -0.001496   -0.000074    0.001496    0.000073   -0.005061   -0.000251
   -2    0    1    4    2    0.000523    0.000005   -0.001669   -0.000017   -0.002247   -0.000023
   -2    0    1    5    2   -0.007990   -0.000314    0.002040    0.000080   -0.002040   -0.000080
   -2    0    1    6    2   -0.000558   -0.000025   -0.002623   -0.000116    0.002621    0.000116
   -2    0    1    7    2   -0.001214   -0.000053    0.001809    0.000079   -0.002077   -0.000090
   -2    0    1    8    2    0.001192    0.000053   -0.002043   -0.000090    0.001774    0.000078
   -2    0    1    1    3   -0.013756    0.000608    0.003657   -0.000162   -0.011319    0.000501
   -2    0    1    2    3   -0.015772    0.000783   -0.003308    0.000164   -0.015897    0.000790
   -2    0    1    3    3   -0.001152   -0.000000   -0.001151   -0.000000   -0.001151   -0.000000
   -2    0    1    4    3   -0.004790    0.000189    0.005453   -0.000215    0.011350   -0.000447
   -2    0    1    5    3    0.000488   -0.000005    0.000745   -0.000008    0.000867   -0.000009
   -2    0    1    6    3   -0.001885    0.000010   -0.001128    0.000006   -0.000480    0.000003
   -2    0    1    7    3   -0.000849    0.000005    0.000301   -0.000002    0.001310   -0.000008
   -2    0    1    8    3   -0.000646    0.000003    0.000966   -0.000005    0.000540   -0.000003
   -2    0    1    1    4    0.002247   -0.000011   -0.000523    0.000002    0.001669   -0.000008
   -2    0    1    2    4   -0.002247    0.000023   -0.001669    0.000017    0.000523   -0.000005
   -2    0    1    3    4   -0.024867   -0.000979    0.004197    0.000165   -0.003045   -0.000120
   -2    0    1    4    4    0.000657    0.000000    0.000154    0.000000    0.000154    0.000000
   -2    0    1    5    4    0.002040    0.000059   -0.002040   -0.000059    0.007992    0.000232
   -2    0    1    6    4    0.001804    0.000061   -0.002073   -0.000070    0.001197    0.000041
   -2    0    1    7    4    0.002049    0.000068   -0.001780   -0.000059    0.001211    0.000040
   -2    0    1    8    4    0.002624    0.000089   -0.002623   -0.000089   -0.000557   -0.000019
   -2    0    1    1    5    0.000233   -0.000008   -0.000708    0.000024    0.000233   -0.000008
   -2    0    1    2    5    0.000032   -0.000001    0.001025   -0.000040   -0.000938    0.000037
   -2    0    1    3    5    0.012780    0.000132   -0.011036   -0.000114   -0.000574   -0.000006
   -2    0    1    4    5    0.000939   -0.000027   -0.001025    0.000030   -0.000032    0.000001
   -2    0    1    5    5   -0.000036    0.000000   -0.000210    0.000000   -0.000036    0.000000
   -2    0    1    6    5   -0.000026   -0.000000   -0.000044   -0.000000    0.000076    0.000000
   -2    0    1    7    5   -0.000352   -0.000002   -0.000199   -0.000001   -0.000352   -0.000002
   -2    0    1    8    5   -0.000078   -0.000000    0.000043    0.000000    0.000024    0.000000
   -2    0    1    1    6    0.001040   -0.000040    0.000007   -0.000000   -0.000823    0.000032
   -2    0    1    2    6   -0.000085    0.000004    0.000713   -0.000032    0.000003   -0.000000
   -2    0    1    3    6   -0.010441   -0.000056    0.012001    0.000065   -0.000360   -0.000002
   -2    0    1    4    6   -0.002111    0.000072   -0.000003    0.000000    0.001651   -0.000056
   -2    0    1    5    6   -0.000087    0.000000   -0.000180    0.000001    0.000214   -0.000001
   -2    0    1    6    6   -0.000035   -0.000000   -0.000036   -0.000000   -0.000210   -0.000000
   -2    0    1    7    6    0.000253   -0.000000    0.000221   -0.000000    0.000330   -0.000000
   -2    0    1    8    6   -0.000392   -0.000000    0.000126    0.000000   -0.000192   -0.000000
   -2    0    1    1    7    0.000515   -0.000020    0.000149   -0.000006    0.000526   -0.000020
   -2    0    1    2    7    0.000369   -0.000016    0.000787   -0.000034   -0.000955    0.000042
   -2    0    1    3    7    0.003599    0.000022   -0.005434   -0.000033   -0.000766   -0.000005
   -2    0    1    4    7    0.000968   -0.000032   -0.000792    0.000026   -0.000379    0.000013
   -2    0    1    5    7    0.000079   -0.000000    0.000164   -0.000001    0.000077   -0.000000
   -2    0    1    6    7    0.000317    0.000000   -0.000057   -0.000000   -0.000185   -0.000000
   -2    0    1    7    7    0.000270    0.000000    0.000272    0.000000    0.000272    0.000000
   -2    0    1    8    7    0.000188    0.000000    0.000056    0.000000   -0.000315   -0.000000
   -2    0    1    1    8    0.000820   -0.000032   -0.000005    0.000000   -0.001032    0.000040
   -2    0    1    2    8    0.001653   -0.000073   -0.000004    0.000000   -0.002116    0.000094
   -2    0    1    3    8   -0.008882   -0.000048    0.010673    0.000057    0.000527    0.000003
   -2    0    1    4    8    0.000022   -0.000001    0.000708   -0.000024   -0.000097    0.000003
   -2    0    1    5    8   -0.000213    0.000001    0.000183   -0.000001    0.000086   -0.000000
   -2    0    1    6    8   -0.000195    0.000000    0.000124   -0.000000   -0.000393    0.000000
   -2    0    1    7    8   -0.000329    0.000000   -0.000223    0.000000   -0.000253    0.000000
   -2    0    1    8    8   -0.000212    0.000000   -0.000037   -0.000000   -0.000038   -0.000000
   -2    1    0    1    1    0.001152    0.000000   -0.001152   -0.000000    0.001152    0.000000
   -2    1    0    2    1   -0.003872    0.000021   -0.000868    0.000005    0.000868   -0.000005
   -2    1    0    3    1    0.001420    0.000063    0.002989    0.000132    0.023655    0.001044
   -2    1    0    4    1   -0.000868   -0.000004    0.000868    0.000004    0.003872    0.000019
   -2    1    0    5    1   -0.002626   -0.000089    0.000552    0.000019   -0.002626   -0.000089
   -2    1    0    6    1   -0.002048   -0.000079   -0.001177   -0.000046   -0.001779   -0.000069
   -2    1    0    7    1    0.002037    0.000078    0.007989    0.000305    0.002036    0.000078
   -2    1    0    8    1    0.001804    0.000070    0.001235    0.000048    0.002073    0.000080
   -2    1    0    1    2    0.001230    0.000007   -0.000017   -0.000000    0.000017    0.000000
   -2    1    0    2    2   -0.000657   -0.000000    0.000154    0.000000   -0.000154    0.000000
   -2    1    0    3    2   -0.001420   -0.000070   -0.023649   -0.001173   -0.002988   -0.000148
   -2    1    0    4    2    0.002247    0.000023   -0.001669   -0.000017   -0.000523   -0.000005
   -2    1    0    5    2   -0.002058   -0.000081   -0.001789   -0.000070   -0.001189   -0.000047
   -2    1    0    6    2   -0.002629   -0.000116   -0.002630   -0.000116    0.000541    0.000024
   -2    1    0    7    2   -0.002032   -0.000089   -0.002031   -0.000088   -0.007987   -0.000348
   -2    1    0    8    2   -0.001793   -0.000079   -0.002062   -0.000091   -0.001233   -0.000055
   -2    1    0    1    3   -0.005785    0.000256    0.013424   -0.000593   -0.025285    0.001118
   -2    1    0    2    3    0.028704   -0.001424    0.020694   -0.001027    0.017240   -0.000856
   -2    1    0    3    3   -0.000154   -0.000000    0.000657    0.000000   -0.000154   -0.000000
   -2    1    0    4    3    0.011316   -0.000445   -0.003676    0.000145    0.014956   -0.000588
   -2    1    0    5    3    0.000294   -0.000003   -0.000293    0.000003   -0.001285    0.000013
   -2    1    0    6    3    0.001127   -0.000006    0.000670   -0.000004    0.000200   -0.000001
   -2    1    0    7    3   -0.000147    0.000001   -0.000070    0.000000    0.001412   -0.000009
   -2    1    0    8    3   -0.000489    0.000003    0.000421   -0.000002   -0.000985    0.000005
   -2    1    0    1    4   -0.000017    0.000000    0.000017   -0.000000   -0.001230    0.000006
   -2    1    0    2    4   -0.000523    0.000005   -0.001669    0.000017    0.002247   -0.000023
   -2    1    0    3    4   -0.000970   -0.000038   -0.001068   -0.000041   -0.001068   -0.000041
   -2    1    0    4    4   -0.000154   -0.000000    0.000154    0.000000   -0.000657   -0.000000
   -2    1    0    5    4    0.001189    0.000035    0.001791    0.000052    0.002060    0.000060
   -2    1    0    6    4   -0.001180   -0.000040   -0.002065   -0.000070   -0.001797   -0.000061
   -2    1    0    7    4    0.007994    0.000266    0.002059    0.000069    0.002059    0.000069
   -2    1    0    8    4    0.000598    0.000020   -0.002606   -0.000089   -0.002607   -0.000089
   -2    1    0    1    5    0.000805   -0.000027    0.000907   -0.000031    0.000805   -0.000027
   -2    1    0    2    5   -0.000962    0.000038   -0.000786    0.000031    0.000376   -0.000015
   -2    1    0    3    5    0.001023    0.000011   -0.001090   -0.000011    0.002597    0.000027
   -2    1    0    4    5   -0.000376    0.000011    0.000786   -0.000023    0.000962   -0.000028
   -2    1    0    5    5   -0.000271   -0.000000    0.000271    0.000000   -0.000271   -0.000000
   -2    1    0    6    5   -0.000188   -0.000001    0.000056    0.000000    0.000316    0.000002
   -2    1    0    7    5   -0.000076   -0.000000    0.000165    0.000001   -0.000079   -0.000000
   -2    1    0    8    5   -0.000315   -0.000002   -0.000055   -0.000000    0.000185    0.000001
   -2    1    0    1    6    0.001192   -0.000046   -0.000801    0.000031    0.000421   -0.000016
   -2    1    0    2    6   -0.000006    0.000000    0.000710   -0.000031    0.000086   -0.000004
   -2    1    0    3    6   -0.000861   -0.000005   -0.006454   -0.000035    0.002663    0.000015
   -2    1    0    4    6   -0.001652    0.000056    0.000000    0.000000    0.002114   -0.000072
   -2    1    0    5    6    0.000329   -0.000002   -0.000222    0.000001    0.000252   -0.000001
   -2    1    0    6    6    0.000211    0.000000   -0.000037   -0.000000    0.000036    0.000000
   -2    1    0    7    6    0.000213   -0.000000    0.000179   -0.000000   -0.000088    0.000000
   -2    1    0    8    6    0.000194    0.000000    0.000126    0.000000    0.000393    0.000000
   -2    1    0    1    7    0.000746   -0.000028    0.000875   -0.000033    0.000751   -0.000029
   -2    1    0    2    7   -0.000950    0.000041   -0.001027    0.000045    0.000040   -0.000002
   -2    1    0    3    7    0.000896    0.000005   -0.000971   -0.000006    0.006599    0.000040
   -2    1    0    4    7   -0.000031    0.000001    0.001025   -0.000034    0.000937   -0.000031
   -2    1    0    5    7    0.000353   -0.000002   -0.000198    0.000001    0.000353   -0.000002
   -2    1    0    6    7    0.000074    0.000000    0.000042    0.000000   -0.000026   -0.000000
   -2    1    0    7    7    0.000036   -0.000000   -0.000211    0.000000    0.000037   -0.000000
   -2    1    0    8    7    0.000024    0.000000   -0.000046   -0.000000   -0.000078   -0.000000
   -2    1    0    1    8   -0.000423    0.000016    0.000812   -0.000032   -0.001190    0.000046
   -2    1    0    2    8    0.002108   -0.000093   -0.000012    0.000001   -0.001652    0.000073
   -2    1    0    3    8    0.000240    0.000001   -0.000278   -0.000001    0.003548    0.000019
   -2    1    0    4    8    0.000095   -0.000003    0.000718   -0.000024   -0.000014    0.000000
   -2    1    0    5    8   -0.000252    0.000001    0.000222   -0.000001   -0.000328    0.000002
   -2    1    0    6    8    0.000392   -0.000000    0.000125    0.000000    0.000195   -0.000000
   -2    1    0    7    8    0.000084   -0.000000   -0.000183    0.000000   -0.000216    0.000000
   -2    1    0    8    8    0.000037    0.000000   -0.000035   -0.000000    0.000211    0.000000
   -2    1    1    1    1    0.000154    0.000000   -0.000154   -0.000000   -0.000657    0.000000
   -2    1    1    2    1   -0.001669    0.000009   -0.000523    0.000003    0.002247   -0.000012
   -2    1    1    3    1   -0.002245   -0.000099   -0.001667   -0.000074   -0.000522   -0.000023
   -2    1    1    4    1    0.000017    0.000000   -0.000017   -0.000000   -0.001230   -0.000006
   -2    1    1    5    1    0.000307    0.000010   -0.000395   -0.000013    0.000869    0.000029
   -2    1    1    6    1    0.000880    0.000034    0.000585    0.000023   -0.000404   -0.000016
   -2    1    1    7    1   -0.001496   -0.000057    0.000521    0.000020   -0.000808   -0.000031
   -2    1    1    8    1    0.001543    0.000060    0.000554    0.000021    0.002025    0.000079
   -2    1    1    1    2   -0.001669   -0.000009    0.002247    0.000012   -0.000523   -0.000003
   -2    1    1    2    2    0.000154   -0.000000   -0.000657    0.000000   -0.000154    0.000000
   -2    1    1    3    2    0.000867    0.000043    0.000867    0.000043    0.003867    0.000192
   -2    1    1    4    2   -0.000017   -0.000000    0.001230    0.000013    0.000017    0.000000
   -2    1    1    5    2    0.001796    0.000070    0.000569    0.000022   -0.000791   -0.000031
   -2    1    1    6    2   -0.001365   -0.000060    0.001813    0.000080    0.001367    0.000060
   -2    1    1    7    2   -0.000786   -0.000034   -0.000568   -0.000025    0.001793    0.000078
   -2    1    1    8    2    0.000592    0.000026   -0.000714   -0.000032   -0.000588   -0.000026
   -2    1    1    1    3   -0.006884    0.000304   -0.001986    0.000088   -0.005370    0.000238
   -2    1    1    2    3   -0.002051    0.000102   -0.002051    0.000101   -0.001462    0.000073
   -2    1    1    3    3    0.000657   -0.000000   -0.000154   -0.000000   -0.000154   -0.000000
   -2    1    1    4    3   -0.005002    0.000197   -0.008515    0.000335    0.008515   -0.000335
   -2    1    1    5    3    0.000705   -0.000007   -0.000257    0.000003    0.000008   -0.000000
   -2    1    1    6    3    0.000609   -0.000003    0.000328   -0.000002   -0.000077    0.000000
   -2    1    1    7    3    0.001009   -0.000007    0.000283   -0.000002    0.000691   -0.000004
   -2    1    1    8    3    0.000017    0.000000    0.000434   -0.000002   -0.000542    0.000003
   -2    1    1    1    4    0.000868   -0.000004   -0.000868    0.000004    0.003872   -0.000019
   -2    1    1    2    4   -0.000868    0.000009   -0.003872    0.000040    0.000868   -0.000009
   -2    1    1    3    4   -0.001668   -0.000066   -0.002245   -0.000088   -0.000523   -0.000021
   -2    1    1    4    4   -0.001151    0.000000    0.001152   -0.000000    0.001152   -0.000000
   -2    1    1    5    4    0.000677    0.000020    0.000276    0.000008    0.000048    0.000001
   -2    1    1    6    4   -0.000824   -0.000028   -0.000930   -0.000032    0.000825    0.000028
   -2    1    1    7    4    0.000048    0.000002   -0.000272   -0.000009    0.000678    0.000023
   -2    1    1    8    4    0.000607    0.000021   -0.000279   -0.000009   -0.000604   -0.000021
   -2    1    1    1    5   -0.000643    0.000022    0.000253   -0.000009   -0.004886    0.000165
   -2    1    1    2    5   -0.000477    0.000019   -0.006314    0.000248    0.001945   -0.000076
   -2    1    1    3    5   -0.000854   -0.000009   -0.001246   -0.000013   -0.000743   -0.000008
   -2    1    1    4    5   -0.001594    0.000046   -0.000927    0.000027   -0.000531    0.000015
   -2    1    1    5    5   -0.000037   -0.000000    0.000036    0.000000    0.000211    0.000000
   -2    1    1    6    5    0.000464    0.000002    0.000053    0.000000    0.000173    0.000001
   -2    1    1    7    5    0.000158    0.000001   -0.000253   -0.000001   -0.000235   -0.000001
   -2    1    1    8    5   -0.000159   -0.000001    0.000127    0.000001    0.000281    0.000001
   -2    1    1    1    6   -0.000241    0.000009   -0.000522    0.000020   -0.001844    0.000072
   -2    1    1    2    6   -0.002611    0.000115   -0.008372    0.000370    0.002614   -0.000116
   -2    1    1    3    6    0.000288    0.000002    0.002812    0.000015   -0.000830   -0.000004
   -2    1    1    4    6   -0.000918    0.000031    0.000163   -0.000006    0.000914   -0.000031
   -2    1    1    5    6    0.000402   -0.000002   -0.000085    0.000000    0.000310   -0.000002
   -2    1    1    6    6   -0.000037    0.000000    0.000212   -0.000000    0.000037   -0.000000
   -2    1    1    7    6    0.000309   -0.000000    0.000084   -0.000000    0.000404   -0.000000
   -2    1    1    8    6    0.000260    0.000000   -0.000152   -0.000000   -0.000257   -0.000000
   -2    1    1    1    7   -0.000856    0.000033    0.001258   -0.000048   -0.000749    0.000028
   -2    1    1    2    7    0.001962   -0.000085    0.006326   -0.000275   -0.000491    0.000021
   -2    1    1    3    7   -0.000646   -0.000004   -0.000263   -0.000002   -0.004881   -0.000030
   -2    1    1    4    7   -0.000532    0.000018    0.000925   -0.000031   -0.001598    0.000053
   -2    1    1    5    7    0.000234   -0.000001   -0.000252    0.000001   -0.000157    0.000001
   -2    1    1    6    7    0.000175    0.000000   -0.000055   -0.000000    0.000463    0.000000
   -2    1    1    7    7   -0.000210   -0.000000    0.000035    0.000000    0.000035    0.000000
   -2    1    1    8    7    0.000279    0.000000   -0.000128   -0.000000   -0.000159   -0.000000
   -2    1    1    1    8    0.000287   -0.000011   -0.002805    0.000109   -0.000811    0.000031
   -2    1    1    2    8   -0.003243    0.000143   -0.003479    0.000154    0.003250   -0.000144
   -2    1    1    3    8   -0.000245   -0.000001    0.000505    0.000003   -0.001861   -0.000010
   -2    1    1    4    8   -0.000361    0.000012   -0.000029    0.000001    0.000351   -0.000012
   -2    1    1    5    8   -0.000179    0.000001   -0.000194    0.000001   -0.000108    0.000001
   -2    1    1    6    8   -0.000215    0.000000    0.000084    0.000000    0.000217   -0.000000
   -2    1    1    7    8   -0.000109    0.000000    0.000192   -0.000000   -0.000181    0.000000
   -2    1    1    8    8    0.000272    0.000000   -0.000270   -0.000000   -0.000271   -0.000000
   -1   -1    0    1    1    0.001152   -0.000000   -0.001152    0.000000    0.001152   -0.000000
   -1   -1    0    2    1    0.000581   -0.000003   -0.000916    0.000005    0.000916   -0.000005
   -1   -1    0    3    1   -0.025267   -0.001116    0.032070    0.001419    0.000392    0.000017
   -1   -1    0    4    1   -0.000916   -0.000004    0.000916    0.000004   -0.000581   -0.000003
   -1   -1    0    5    1   -0.001364   -0.000046   -0.001818   -0.000061   -0.001364   -0.000046
   -1   -1    0    6    1    0.001795    0.000070   -0.000563   -0.000022    0.000786    0.000031
   -1   -1    0    7    1    0.000588    0.000022    0.000704    0.000027    0.000593    0.000023
   -1   -1    0    8    1   -0.000793   -0.000031    0.000570    0.000022   -0.001797   -0.000070
   -1   -1    0    1    2    0.000867    0.000005    0.001385    0.000008   -0.001385   -0.000008
   -1   -1    0    2    2   -0.000657    0.000000    0.000154   -0.000000   -0.000154   -0.000000
   -1   -1    0    3    2   -0.051700   -0.002565   -0.051700   -0.002565   -0.005755   -0.000286
   -1   -1    0    4    2    0.002269    0.000023   -0.001909   -0.000020   -0.001472   -0.000015
   -1   -1    0    5    2    0.000878    0.000034   -0.000580   -0.000023    0.000409    0.000016
   -1   -1    0    6    2    0.000304    0.000013    0.000391    0.000017   -0.000871   -0.000038
   -1   -1    0    7    2    0.001554    0.000068   -0.000553   -0.000024   -0.002027   -0.000088
   -1   -1    0    8    2   -0.001484   -0.000066   -0.000529   -0.000023    0.000797    0.000035
   -1   -1    0    1    3    0.000419   -0.000018   -0.009679    0.000427   -0.001571    0.000070
   -1   -1    0    2    3    0.013466   -0.000668    0.002900   -0.000144    0.008347   -0.000414
   -1   -1    0    3    3   -0.000154    0.000000    0.000657   -0.000000   -0.000154    0.000000
   -1   -1    0    4    3    0.002610   -0.000103    0.005719   -0.000225   -0.002512    0.000099
   -1   -1    0    5    3   -0.001922    0.000020   -0.001551    0.000016    0.000418   -0.000004
   -1   -1    0    6    3   -0.002751    0.000015   -0.003033    0.000016    0.001218   -0.000006
   -1   -1    0    7    3   -0.001597    0.000010   -0.002550    0.000016   -0.002221    0.000014
   -1   -1    0    8    3   -0.001069    0.000006   -0.002413    0.000013   -0.000327    0.000002
   -1   -1    0    1    4    0.001385   -0.000007   -0.001385    0.000007   -0.000867    0.000004
   -1   -1    0    2    4   -0.001472    0.000015   -0.001909    0.000020    0.002269   -0.000023
   -1   -1    0    3    4    0.032075    0.001264   -0.025273   -0.000994    0.000393    0.000016
   -1   -1    0    4    4   -0.000154    0.000000    0.000154   -0.000000   -0.000657    0.000000
   -1   -1    0    5    4   -0.000409   -0.000012    0.000581    0.000017   -0.000878   -0.000025
   -1   -1    0    6    4    0.000805    0.000027   -0.000523   -0.000018   -0.001492   -0.000051
   -1   -1    0    7    4    0.002027    0.000067    0.000554    0.000018   -0.001550   -0.000052
   -1   -1    0    8    4   -0.000865   -0.000029    0.000399    0.000014    0.000303    0.000010
   -1   -1    0    1    5   -0.000213    0.000007    0.002221   -0.000075   -0.000213    0.000007
   -1   -1    0    2    5    0.001156   -0.000045    0.000618   -0.000024    0.000286   -0.000011
   -1   -1    0    3    5   -0.000794   -0.000008    0.000495    0.000005    0.000668    0.000007
   -1   -1    0    4    5   -0.000287    0.000008   -0.000618    0.000018   -0.001156    0.000034
   -1   -1    0    5    5   -0.000271    0.000000    0.000271   -0.000000   -0.000271    0.000000
   -1   -1    0    6    5    0.000299    0.000001   -0.000199   -0.000001    0.000252    0.000001
   -1   -1    0    7    5    0.000237    0.000001   -0.000261   -0.000001    0.000238    0.000001
   -1   -1    0    8    5   -0.000253   -0.000001    0.000199    0.000001   -0.000299   -0.000001
   -1   -1    0    1    6    0.002236   -0.000087    0.002288   -0.000089   -0.001406    0.000054
   -1   -1    0    2    6    0.001097   -0.000048    0.000367   -0.000016    0.001658   -0.000073
   -1   -1    0    3    6   -0.000899   -0.000005   -0.000212   -0.000001    0.001909    0.000010
   -1   -1    0    4    6    0.002240   -0.000076    0.002297   -0.000078   -0.000522    0.000018
   -1   -1    0    5    6   -0.000012    0.000000   -0.000013    0.000000   -0.000228    0.000001
   -1   -1    0    6    6    0.000211   -0.000000   -0.000037    0.000000    0.000036   -0.000000
   -1   -1    0    7    6    0.000175   -0.000000    0.000000    0.000000   -0.000443    0.000000
   -1   -1    0    8    6   -0.000150   -0.000000   -0.000317   -0.000000    0.000117    0.000000
   -1   -1    0    1    7   -0.004164    0.000159   -0.002924    0.000112   -0.004143    0.000158
   -1   -1    0    2    7   -0.000458    0.000020    0.004255   -0.000185    0.002807   -0.000122
   -1   -1    0    3    7    0.000121    0.000001   -0.000443   -0.000003    0.000275    0.000002
   -1   -1    0    4    7   -0.002831    0.000094   -0.004272    0.000142    0.000455   -0.000015
   -1   -1    0    5    7    0.000129   -0.000001    0.000130   -0.000001    0.000130   -0.000001
   -1   -1    0    6    7    0.000135    0.000000   -0.000038   -0.000000   -0.000204   -0.000000
   -1   -1    0    7    7    0.000036    0.000000   -0.000211   -0.000000    0.000037    0.000000
   -1   -1    0    8    7    0.000201    0.000000    0.000042    0.000000   -0.000134   -0.000000
   -1   -1    0    1    8    0.001366   -0.000053   -0.002324    0.000090   -0.002255    0.000087
   -1   -1    0    2    8   -0.000531    0.000024    0.002323   -0.000103    0.002247   -0.000099
   -1   -1    0    3    8    0.000317    0.000002    0.000792    0.000004    0.000872    0.000005
   -1   -1    0    4    8    0.001627   -0.000055    0.000326   -0.000011    0.001104   -0.000037
   -1   -1    0    5    8    0.000229   -0.000001    0.000014   -0.000000    0.000014   -0.000000
   -1   -1    0    6    8    0.000125   -0.000000   -0.000318    0.000000   -0.000157    0.000000
   -1   -1    0    7    8    0.000438   -0.000000    0.000003   -0.000000   -0.000170    0.000000
   -1   -1    0    8    8    0.000037   -0.000000   -0.000035    0.000000    0.000211   -0.000000
   -1   -1    1    1    1   -0.004154    0.000000    0.004154    0.000000   -0.000000    0.000000
   -1   -1    1    2    1    0.008816   -0.000048    0.005300   -0.000029   -0.012694    0.000069
   -1   -1    1    3    1    0.012682    0.000560    0.008808    0.000390    0.005295    0.000234
   -1   -1    1    4    1    0.006133    0.000030   -0.006133   -0.000029    0.013110    0.000063
   -1   -1    1    5    1    0.000393    0.000013   -0.000871   -0.000029    0.000308    0.000010
   -1   -1    1    6    1   -0.000522   -0.000020    0.000807    0.000031   -0.001495   -0.000058
   -1   -1    1    7    1    0.000553    0.000021    0.002025    0.000077   -0.001543   -0.000059
   -1   -1    1    8    1    0.000586    0.000023   -0.000403   -0.000016   -0.000880   -0.000034
   -1   -1    1    1    2   -0.000300   -0.000001    0.004467    0.000024    0.004116    0.000022
   -1   -1    1    2    2   -0.004153   -0.000000   -0.004154   -0.000000   -0.000001    0.000000
   -1   -1    1    3    2   -0.012679   -0.000630   -0.005294   -0.000263   -0.008806   -0.000437
   -1   -1    1    4    2    0.004467    0.000045   -0.000300   -0.000003    0.004117    0.000042
   -1   -1    1    5    2   -0.000523   -0.000021   -0.001491   -0.000059    0.000804    0.000032
   -1   -1    1    6    2    0.000392    0.000017    0.000314    0.000014   -0.000872   -0.000039
   -1   -1    1    7    2   -0.000553   -0.000024    0.001544    0.000067   -0.002025   -0.000088
   -1   -1    1    8    2   -0.000586   -0.000026    0.000883    0.000039    0.000403    0.000018
   -1   -1    1    1    3    0.006773   -0.000300    0.001554   -0.000068   -0.004638    0.000205
   -1   -1    1    2    3    0.018303   -0.000908   -0.001937    0.000096    0.010749   -0.000534
   -1   -1    1    3    3    0.004153   -0.000000    0.004154   -0.000000   -0.000000    0.000000
   -1   -1    1    4    3   -0.007976    0.000315   -0.001286    0.000051   -0.021089    0.000830
   -1   -1    1    5    3   -0.000236    0.000002    0.000580   -0.000006    0.000495   -0.000005
   -1   -1    1    6    3   -0.002199    0.000012   -0.000236    0.000001   -0.001227    0.000006
   -1   -1    1    7    3    0.003091   -0.000019   -0.001597    0.000010    0.001932   -0.000012
   -1   -1    1    8    3    0.001730   -0.000009   -0.002408    0.000013    0.001746   -0.000009
   -1   -1    1    1    4   -0.006133    0.000030    0.006133   -0.000030    0.013110   -0.000063
   -1   -1    1    2    4    0.005300   -0.000054    0.008816   -0.000090   -0.012694    0.000130
   -1   -1    1    3    4    0.008076    0.000318   -0.002799   -0.000110   -0.002799   -0.000110
   -1   -1    1    4    4    0.004154   -0.000000   -0.004153    0.000000   -0.000000    0.000000
   -1   -1    1    5    4    0.000567    0.000016   -0.000789   -0.000023   -0.001796   -0.000052
   -1   -1    1    6    4   -0.000571   -0.000019    0.001794    0.000061    0.000789    0.000027
   -1   -1    1    7    4    0.000715    0.000024    0.000590    0.000020    0.000591    0.000020
   -1   -1    1    8    4   -0.001812   -0.000062   -0.001369   -0.000047   -0.001366   -0.000046
   -1   -1    1    1    5    0.000331   -0.000011   -0.000608    0.000021    0.000965   -0.000033
   -1   -1    1    2    5    0.000074   -0.000003    0.001696   -0.000067   -0.001254    0.000049
   -1   -1    1    3    5    0.001502    0.000016   -0.000395   -0.000004    0.000597    0.000006
   -1   -1    1    4    5   -0.000214    0.000006   -0.002186    0.000063   -0.000286    0.000008
   -1   -1    1    5    5   -0.000071    0.000000    0.000071    0.000000   -0.000000    0.000000
   -1   -1    1    6    5   -0.000002   -0.000000    0.000616    0.000003   -0.000614   -0.000003
   -1   -1    1    7    5    0.000268    0.000001    0.000876    0.000004   -0.000919   -0.000004
   -1   -1    1    8    5   -0.000110   -0.000001    0.000671    0.000003   -0.000680   -0.000003
   -1   -1    1    1    6   -0.000361    0.000014   -0.000735    0.000028   -0.000573    0.000022
   -1   -1    1    2    6    0.000018   -0.000001    0.001733   -0.000077   -0.002186    0.000097
   -1   -1    1    3    6   -0.001073   -0.000006   -0.000043   -0.000000    0.001615    0.000009
   -1   -1    1    4    6    0.000501   -0.000017   -0.001240    0.000042    0.001069   -0.000036
   -1   -1    1    5    6    0.000048   -0.000000   -0.000035   -0.000000    0.000035   -0.000000
   -1   -1    1    6    6   -0.000071   -0.000000   -0.000070    0.000000    0.000001    0.000000
   -1   -1    1    7    6    0.000114   -0.000000    0.000799   -0.000001   -0.000666    0.000000
   -1   -1    1    8    6   -0.000277   -0.000000    0.000295   -0.000000   -0.000114   -0.000000
   -1   -1    1    1    7    0.000846   -0.000032   -0.000183    0.000007   -0.000497    0.000019
   -1   -1    1    2    7   -0.000500    0.000022   -0.000121    0.000005   -0.000888    0.000039
   -1   -1    1    3    7    0.000283    0.000002   -0.000598   -0.000004    0.000204    0.000001
   -1   -1    1    4    7   -0.001006    0.000033    0.001101   -0.000037    0.000078   -0.000003
   -1   -1    1    5    7    0.000285   -0.000001    0.000196   -0.000001   -0.000377    0.000002
   -1   -1    1    6    7    0.000063    0.000000    0.000746    0.000000   -0.000737   -0.000000
   -1   -1    1    7    7    0.000072    0.000000    0.000071   -0.000000    0.000000    0.000000
   -1   -1    1    8    7   -0.000040   -0.000000    0.000524    0.000000   -0.000524   -0.000000
   -1   -1    1    1    8    0.000653   -0.000025   -0.000178    0.000007    0.000136   -0.000005
   -1   -1    1    2    8   -0.000771    0.000034   -0.000387    0.000017    0.000390   -0.000017
   -1   -1    1    3    8   -0.001302   -0.000007    0.001006    0.000006    0.000592    0.000003
   -1   -1    1    4    8   -0.000701    0.000024    0.000012   -0.000000   -0.000864    0.000029
   -1   -1    1    5    8   -0.000098    0.000000    0.000659   -0.000003   -0.000792    0.000004
   -1   -1    1    6    8   -0.000291    0.000000    0.000910   -0.000000   -0.000867    0.000000
   -1   -1    1    7    8   -0.000021    0.000000    0.001168   -0.000001   -0.001169    0.000001
   -1   -1    1    8    8    0.000071   -0.000000   -0.000071   -0.000000    0.000001    0.000000
   -1   -1    2    1    1    0.000154   -0.000000   -0.000154    0.000000   -0.000657   -0.000000
   -1   -1    2    2    1   -0.001909    0.000010   -0.001471    0.000008    0.002269   -0.000012
   -1   -1    2    3    1   -0.002799   -0.000124    0.008075    0.000357   -0.002799   -0.000124
   -1   -1    2    4    1   -0.001385   -0.000007    0.001385    0.000007   -0.000867   -0.000004
   -1   -1    2    5    1    0.002453    0.000083   -0.002511   -0.000085    0.002513    0.000085
   -1   -1    2    6    1    0.003299    0.000128   -0.000135   -0.000005    0.000130    0.000005
   -1   -1    2    7    1   -0.003402   -0.000130   -0.002227   -0.000085    0.001234    0.000047
   -1   -1    2    8    1    0.003365    0.000130    0.001215    0.000047   -0.002216   -0.000086
   -1   -1    2    1    2   -0.001909   -0.000010    0.002269    0.000012   -0.001471   -0.000008
   -1   -1    2    2    2    0.000154    0.000000   -0.000657   -0.000000   -0.000154   -0.000000
   -1   -1    2    3    2   -0.005294   -0.000263   -0.012679   -0.000629   -0.008806   -0.000437
   -1   -1    2    4    2    0.001385    0.000014    0.000866    0.000009   -0.001385   -0.000014
   -1   -1    2    5    2    0.007570    0.000297    0.003471    0.000136   -0.003479   -0.000136
   -1   -1    2    6    2    0.006840    0.000302    0.006854    0.000303   -0.006832   -0.000302
   -1   -1    2    7    2   -0.003487   -0.000152   -0.003507   -0.000153    0.007587    0.000330
   -1   -1    2    8    2    0.003439    0.000152    0.007533    0.000333   -0.003421   -0.000151
   -1   -1    2    1    3    0.003015   -0.000133    0.000564   -0.000025    0.000721   -0.000032
   -1   -1    2    2    3   -0.003244    0.000161   -0.000762    0.000038    0.000995   -0.000049
   -1   -1    2    3    3    0.000657    0.000000   -0.000154    0.000000   -0.000154    0.000000
   -1   -1    2    4    3    0.001616   -0.000064    0.001964   -0.000077   -0.001256    0.000049
   -1   -1    2    5    3   -0.000902    0.000009    0.000207   -0.000002   -0.001269    0.000013
   -1   -1    2    6    3   -0.001154    0.000006   -0.001275    0.000007    0.002343   -0.000013
   -1   -1    2    7    3    0.002863   -0.000017   -0.001374    0.000008    0.002084   -0.000013
   -1   -1    2    8    3    0.000990   -0.000005   -0.000628    0.000003    0.002461   -0.000013
   -1   -1    2    1    4    0.000916   -0.000004   -0.000916    0.000004   -0.000581    0.000003
   -1   -1    2    2    4   -0.000915    0.000009    0.000581   -0.000006    0.000916   -0.000009
   -1   -1    2    3    4    0.008810    0.000347    0.012685    0.000500    0.005296    0.000208
   -1   -1    2    4    4   -0.001151   -0.000000    0.001152    0.000000    0.001152    0.000000
   -1   -1    2    5    4    0.001228    0.000036    0.003391    0.000098   -0.002224   -0.000064
   -1   -1    2    6    4   -0.000149   -0.000005    0.003297    0.000112    0.000148    0.000005
   -1   -1    2    7    4   -0.002209   -0.000074   -0.003398   -0.000113    0.001211    0.000040
   -1   -1    2    8    4   -0.002520   -0.000086    0.002430    0.000082    0.002515    0.000086
   -1   -1    2    1    5   -0.000421    0.000014   -0.000266    0.000009   -0.000647    0.000022
   -1   -1    2    2    5   -0.000787    0.000031   -0.000363    0.000014   -0.000986    0.000039
   -1   -1    2    3    5   -0.000253   -0.000003    0.000433    0.000004   -0.000253   -0.000003
   -1   -1    2    4    5    0.000615   -0.000018   -0.000146    0.000004    0.000516   -0.000015
   -1   -1    2    5    5   -0.000037    0.000000    0.000036   -0.000000    0.000211   -0.000000
   -1   -1    2    6    5    0.000049    0.000000   -0.000243   -0.000001   -0.000148   -0.000001
   -1   -1    2    7    5    0.000365    0.000002    0.000077    0.000000   -0.000167   -0.000001
   -1   -1    2    8    5    0.000338    0.000002   -0.000093   -0.000000    0.000165    0.000001
   -1   -1    2    1    6    0.000204   -0.000008   -0.000950    0.000037    0.000651   -0.000025
   -1   -1    2    2    6   -0.000206    0.000009    0.001968   -0.000087    0.000203   -0.000009
   -1   -1    2    3    6   -0.000506   -0.000003    0.000190    0.000001   -0.000367   -0.000002
   -1   -1    2    4    6   -0.000386    0.000013   -0.000714    0.000024    0.000388   -0.000013
   -1   -1    2    5    6   -0.000190    0.000001   -0.000281    0.000001   -0.000110    0.000001
   -1   -1    2    6    6   -0.000037   -0.000000    0.000212    0.000000    0.000037    0.000000
   -1   -1    2    7    6   -0.000110    0.000000    0.000281   -0.000000   -0.000192    0.000000
   -1   -1    2    8    6    0.000024   -0.000000   -0.000047    0.000000   -0.000024   -0.000000
   -1   -1    2    1    7   -0.000792    0.000030    0.000896   -0.000034   -0.000675    0.000026
   -1   -1    2    2    7   -0.000993    0.000043    0.000357   -0.000016   -0.000784    0.000034
   -1   -1    2    3    7    0.000240    0.000001   -0.000080   -0.000001    0.000239    0.000001
   -1   -1    2    4    7    0.000518   -0.000017    0.000149   -0.000005    0.000616   -0.000021
   -1   -1    2    5    7    0.000169   -0.000001    0.000075   -0.000000   -0.000366    0.000002
   -1   -1    2    6    7   -0.000149   -0.000000    0.000245    0.000000    0.000048    0.000000
   -1   -1    2    7    7   -0.000210    0.000000    0.000035   -0.000000    0.000035   -0.000000
   -1   -1    2    8    7    0.000165    0.000000    0.000093    0.000000    0.000336    0.000000
   -1   -1    2    1    8   -0.002037    0.000079   -0.000361    0.000014   -0.000574    0.000022
   -1   -1    2    2    8    0.001314   -0.000058    0.000446   -0.000020   -0.001322    0.000058
   -1   -1    2    3    8    0.000372    0.000002   -0.000191   -0.000001    0.000510    0.000003
   -1   -1    2    4    8    0.000054   -0.000002   -0.000324    0.000011   -0.000049    0.000002
   -1   -1    2    5    8   -0.000283    0.000001    0.000233   -0.000001    0.000207   -0.000001
   -1   -1    2    6    8    0.000271   -0.000000   -0.000170    0.000000   -0.000272    0.000000
   -1   -1    2    7    8    0.000207   -0.000000   -0.000232    0.000000   -0.000284    0.000000
   -1   -1    2    8    8    0.000272   -0.000000   -0.000270    0.000000   -0.000271    0.000000
   -1    0   -1    1    1    0.000154   -0.000000    0.000657   -0.000000    0.000154   -0.000000
   -1    0   -1    2    1   -0.001909    0.000010   -0.002269    0.000012    0.001472   -0.000008
   -1    0   -1    3    1   -0.003045   -0.000135   -0.024863   -0.001100    0.004196    0.000186
   -1    0   -1    4    1   -0.001472   -0.000007    0.002269    0.000011    0.001909    0.000009
   -1    0   -1    5    1   -0.000604   -0.000020    0.000280    0.000009   -0.000604   -0.000020
   -1    0   -1    6    1   -0.000047   -0.000002    0.000277    0.000011    0.000681    0.000026
   -1    0   -1    7    1    0.000829    0.000032    0.000929    0.000035    0.000824    0.000031
   -1    0   -1    8    1   -0.000675   -0.000026   -0.000274   -0.000011    0.000048    0.000002
   -1    0   -1    1    2   -0.001909   -0.000010    0.001472    0.000008   -0.002269   -0.000012
   -1    0   -1    2    2    0.000154    0.000000    0.000154    0.000000    0.000657   -0.000000
   -1    0   -1    3    2    0.010808    0.000536   -0.041871   -0.002079   -0.015452   -0.000765
   -1    0   -1    4    2    0.001472    0.000015   -0.001909   -0.000020   -0.002269   -0.000023
   -1    0   -1    5    2   -0.002026   -0.000079    0.000553    0.000022    0.001547    0.000061
   -1    0   -1    6    2    0.000868    0.000038    0.000393    0.000017   -0.000299   -0.000013
   -1    0   -1    7    2    0.000405    0.000018    0.000584    0.000025    0.000875    0.000038
   -1    0   -1    8    2   -0.000805   -0.000036   -0.000524   -0.000023    0.001493    0.000066
   -1    0   -1    1    3   -0.007675    0.000340    0.006159   -0.000272    0.032550   -0.001438
   -1    0   -1    2    3    0.001555   -0.000077    0.004457   -0.000221   -0.005120    0.000254
   -1    0   -1    3    3   -0.001152    0.000000   -0.001151    0.000000   -0.001151    0.000000
   -1    0   -1    4    3    0.002987   -0.000117   -0.011097    0.000437   -0.001418    0.000056
   -1    0   -1    5    3   -0.007585    0.000079    0.003078   -0.000032    0.006020   -0.000062
   -1    0   -1    6    3    0.005014   -0.000027   -0.002368    0.000013   -0.006760    0.000036
   -1    0   -1    7    3   -0.003599    0.000022    0.000582   -0.000004    0.001768   -0.000011
   -1    0   -1    8    3    0.005422   -0.000029   -0.002947    0.000016   -0.003623    0.000019
   -1    0   -1    1    4    0.002269   -0.000011   -0.001471    0.000007    0.001909   -0.000009
   -1    0   -1    2    4   -0.002269    0.000023   -0.001909    0.000019    0.001471   -0.000015
   -1    0   -1    3    4    0.005063    0.000199    0.001497    0.000059   -0.001497   -0.000060
   -1    0   -1    4    4    0.000657   -0.000000    0.000154   -0.000000    0.000154   -0.000000
   -1    0   -1    5    4   -0.001548   -0.000045   -0.000554   -0.000016    0.002026    0.000059
   -1    0   -1    6    4    0.001488    0.000051   -0.000525   -0.000018   -0.000801   -0.000027
   -1    0   -1    7    4   -0.000884   -0.000029   -0.000583   -0.000019   -0.000406   -0.000014
   -1    0   -1    8    4   -0.000315   -0.000011    0.000394    0.000013    0.000871    0.000030
   -1    0   -1    1    5    0.000073   -0.000003   -0.003953    0.000134    0.000074   -0.000003
   -1    0   -1    2    5    0.002819   -0.000111   -0.004265    0.000167   -0.000462    0.000018
   -1    0   -1    3    5    0.001211    0.000013    0.000787    0.000008    0.001800    0.000019
   -1    0   -1    4    5    0.000462   -0.000013    0.004266   -0.000124   -0.002820    0.000082
   -1    0   -1    5    5   -0.000036   -0.000000   -0.000210   -0.000000   -0.000036   -0.000000
   -1    0   -1    6    5   -0.000205   -0.000001    0.000040    0.000000    0.000135    0.000001
   -1    0   -1    7    5   -0.000129   -0.000001    0.000129    0.000001   -0.000131   -0.000001
   -1    0   -1    8    5   -0.000134   -0.000001   -0.000039   -0.000000    0.000203    0.000001
   -1    0   -1    1    6    0.002224   -0.000086    0.000454   -0.000018   -0.001875    0.000073
   -1    0   -1    2    6   -0.001652    0.000073    0.000358   -0.000016   -0.001096    0.000048
   -1    0   -1    3    6    0.000062    0.000000   -0.001293   -0.000007   -0.001298   -0.000007
   -1    0   -1    4    6    0.000521   -0.000018    0.002307   -0.000078   -0.002246    0.000076
   -1    0   -1    5    6   -0.000441    0.000002    0.000001   -0.000000    0.000174   -0.000001
   -1    0   -1    6    6   -0.000035    0.000000   -0.000036    0.000000   -0.000210    0.000000
   -1    0   -1    7    6   -0.000228    0.000000    0.000015   -0.000000   -0.000013    0.000000
   -1    0   -1    8    6   -0.000121   -0.000000   -0.000318   -0.000000    0.000151    0.000000
   -1    0   -1    1    7    0.001336   -0.000051   -0.000420    0.000016    0.001362   -0.000052
   -1    0   -1    2    7    0.000307   -0.000013   -0.000642    0.000028    0.001154   -0.000050
   -1    0   -1    3    7    0.001039    0.000006   -0.001137   -0.000007   -0.001589   -0.000010
   -1    0   -1    4    7   -0.001151    0.000038    0.000625   -0.000021   -0.000283    0.000009
   -1    0   -1    5    7   -0.000235    0.000001   -0.000261    0.000001   -0.000239    0.000001
   -1    0   -1    6    7    0.000252    0.000000    0.000201    0.000000    0.000299    0.000000
   -1    0   -1    7    7    0.000270   -0.000000    0.000272   -0.000000    0.000272   -0.000000
   -1    0   -1    8    7   -0.000301   -0.000000   -0.000198   -0.000000   -0.000251   -0.000000
   -1    0   -1    1    8    0.001870   -0.000073   -0.000460    0.000018   -0.002204    0.000085
   -1    0   -1    2    8   -0.002232    0.000099    0.002299   -0.000102    0.000535   -0.000024
   -1    0   -1    3    8   -0.000495   -0.000003    0.000371    0.000002    0.000811    0.000004
   -1    0   -1    4    8   -0.001107    0.000038    0.000348   -0.000012   -0.001641    0.000056
   -1    0   -1    5    8   -0.000172    0.000001   -0.000003    0.000000    0.000439   -0.000002
   -1    0   -1    6    8    0.000157   -0.000000   -0.000316    0.000000   -0.000122    0.000000
   -1    0   -1    7    8    0.000012   -0.000000   -0.000011    0.000000    0.000233   -0.000000
   -1    0   -1    8    8   -0.000212   -0.000000   -0.000037    0.000000   -0.000038    0.000000
   -1    0    0    1    1   -0.023605    0.000000    0.003279    0.000000   -0.023606    0.000001
   -1    0    0    2    1    0.032100   -0.000174    0.000393   -0.000002    0.025292   -0.000136
   -1    0    0    3    1    0.001497    0.000066    0.005062    0.000224   -0.001496   -0.000067
   -1    0    0    4    1    0.023678    0.000114   -0.001422   -0.000007   -0.002991   -0.000013
   -1    0    0    5    1   -0.000569   -0.000019    0.002618    0.000089   -0.002619   -0.000089
   -1    0    0    6    1   -0.007990   -0.000310   -0.002045   -0.000079    0.002045    0.000079
   -1    0    0    7    1    0.001224    0.000047    0.002077    0.000079   -0.001808   -0.000069
   -1    0    0    8    1   -0.001172   -0.000045   -0.001776   -0.000069    0.002045    0.000079
   -1    0    0    1    2   -0.024886   -0.000134    0.003048    0.000017    0.004201    0.000023
   -1    0    0    2    2    0.000001    0.000000   -0.003502   -0.000000   -0.000000    0.000000
   -1    0    0    3    2   -0.041870   -0.002077    0.010808    0.000536   -0.015452   -0.000766
   -1    0    0    4    2    0.001069    0.000011   -0.000971   -0.000010   -0.001069   -0.000011
   -1    0    0    5    2   -0.001939   -0.000076    0.000415    0.000016   -0.000410   -0.000016
   -1    0    0    6    2   -0.006581   -0.000291   -0.006589   -0.000291    0.006577    0.000291
   -1    0    0    7    2   -0.000405   -0.000018   -0.000392   -0.000017   -0.001951   -0.000085
   -1    0    0    8    2    0.000436    0.000019   -0.001914   -0.000085   -0.000447   -0.000020
   -1    0    0    1    3    0.041001   -0.001823   -0.065874    0.002911   -0.041000    0.001800
   -1    0    0    2    3    0.190733   -0.009463    0.034056   -0.001691    0.072790   -0.003613
   -1    0    0    3    3    0.023605   -0.000000    0.003279    0.000000    0.023606   -0.000001
   -1    0    0    4    3   -0.059001    0.002320    0.034122   -0.001344   -0.204646    0.008057
   -1    0    0    5    3    0.001067   -0.000011    0.001433   -0.000015   -0.009855    0.000102
   -1    0    0    6    3    0.001431   -0.000008    0.001190   -0.000006   -0.011910    0.000064
   -1    0    0    7    3   -0.001991    0.000012   -0.000990    0.000006    0.003722   -0.000023
   -1    0    0    8    3   -0.003119    0.000017   -0.001415    0.000008    0.013664   -0.000074
   -1    0    0    1    4   -0.041923    0.000203   -0.010821    0.000052   -0.015471    0.000074
   -1    0    0    2    4    0.051761   -0.000530    0.005761   -0.000059   -0.051761    0.000530
   -1    0    0    3    4   -0.024868   -0.000979   -0.003045   -0.000120    0.004197    0.000166
   -1    0    0    4    4    0.000001   -0.000000   -0.003502   -0.000000   -0.000000   -0.000000
   -1    0    0    5    4   -0.001799   -0.000052   -0.001207   -0.000035    0.002067    0.000060
   -1    0    0    6    4   -0.002030   -0.000069   -0.007990   -0.000271    0.002030    0.000069
   -1    0    0    7    4    0.002054    0.000068    0.001221    0.000041   -0.001784   -0.000059
   -1    0    0    8    4    0.002633    0.000089   -0.000536   -0.000018   -0.002632   -0.000089
   -1    0    0    1    5   -0.001008    0.000034    0.000256   -0.000009   -0.002181    0.000074
   -1    0    0    2    5    0.000321   -0.000013   -0.000255    0.000010   -0.000590    0.000023
   -1    0    0    3    5   -0.000270   -0.000003    0.000257    0.000003   -0.000313   -0.000003
   -1    0    0    4    5    0.001908   -0.000055   -0.000486    0.000014    0.000442   -0.000013
   -1    0    0    5    5   -0.000474   -0.000000   -0.000283    0.000000   -0.000474    0.000000
   -1    0    0    6    5    0.000416    0.000002    0.000173    0.000001    0.000645    0.000003
   -1    0    0    7    5    0.000300    0.000001    0.000002    0.000000   -0.000306   -0.000001
   -1    0    0    8    5    0.000040    0.000000   -0.000267   -0.000001    0.000727    0.000004
   -1    0    0    1    6    0.001426   -0.000055    0.001422   -0.000055   -0.002268    0.000088
   -1    0    0    2    6    0.000309   -0.000014   -0.001609    0.000071   -0.000309    0.000014
   -1    0    0    3    6    0.006536    0.000035    0.001802    0.000010   -0.000593   -0.000003
   -1    0    0    4    6    0.001299   -0.000044    0.001358   -0.000046   -0.001294    0.000044
   -1    0    0    5    6    0.000115   -0.000001    0.000526   -0.000003   -0.000890    0.000004
   -1    0    0    6    6    0.000001    0.000000    0.000182    0.000000    0.000001   -0.000000
   -1    0    0    7    6   -0.000880    0.000001   -0.000517    0.000000    0.000103   -0.000000
   -1    0    0    8    6   -0.001307   -0.000000   -0.000958   -0.000000    0.001304    0.000000
   -1    0    0    1    7   -0.000302    0.000011   -0.000254    0.000010   -0.000314    0.000012
   -1    0    0    2    7   -0.000582    0.000025    0.000258   -0.000011    0.000313   -0.000014
   -1    0    0    3    7   -0.001027   -0.000006   -0.000251   -0.000002   -0.002172   -0.000013
   -1    0    0    4    7    0.000471   -0.000016    0.000477   -0.000016    0.001884   -0.000063
   -1    0    0    5    7    0.000301   -0.000001   -0.000000   -0.000000   -0.000297    0.000001
   -1    0    0    6    7    0.000661    0.000000   -0.000161   -0.000000    0.000403    0.000000
   -1    0    0    7    7    0.000476    0.000000   -0.000281    0.000000    0.000476   -0.000000
   -1    0    0    8    7    0.000744    0.000001    0.000270    0.000000    0.000028    0.000000
   -1    0    0    1    8    0.006523   -0.000253   -0.001811    0.000070   -0.000578    0.000022
   -1    0    0    2    8   -0.001918    0.000085    0.000477   -0.000021    0.001918   -0.000085
   -1    0    0    3    8    0.001385    0.000007   -0.001432   -0.000008   -0.002277   -0.000012
   -1    0    0    4    8   -0.006571    0.000223    0.002687   -0.000091    0.006581   -0.000224
   -1    0    0    5    8   -0.000251    0.000001    0.000010   -0.000000   -0.000805    0.000004
   -1    0    0    6    8   -0.002397    0.000000   -0.001881    0.000000    0.002400   -0.000000
   -1    0    0    7    8   -0.000787    0.000001   -0.000004    0.000000   -0.000269    0.000000
   -1    0    0    8    8   -0.000001   -0.000000    0.000185   -0.000000   -0.000001    0.000000
   -1    0    1    1    1   -0.003502   -0.000000   -0.000000    0.000001   -0.000001    0.000001
   -1    0    1    2    1    0.005762   -0.000032    0.051763   -0.000280   -0.051762    0.000280
   -1    0    1    3    1    0.000017    0.000001    0.001229    0.000054    0.000017    0.000001
   -1    0    1    4    1   -0.010822   -0.000052   -0.041922   -0.000200   -0.015470   -0.000076
   -1    0    1    5    1    0.000395    0.000013   -0.000302   -0.000010    0.000868    0.000029
   -1    0    1    6    1   -0.000528   -0.000020    0.001483    0.000058   -0.000797   -0.000031
   -1    0    1    7    1   -0.000578   -0.000022   -0.000877   -0.000033   -0.000413   -0.000016
   -1    0    1    8    1   -0.000553   -0.000021   -0.001557   -0.000060    0.002028    0.000079
   -1    0    1    1    2   -0.000971   -0.000005    0.001068    0.000005   -0.001069   -0.000005
   -1    0    1    2    2   -0.003502   -0.000000   -0.000001   -0.000001   -0.000001   -0.000001
   -1    0    1    3    2   -0.000017   -0.000001   -0.000017   -0.000001   -0.001229   -0.000061
   -1    0    1    4    2    0.003048    0.000031   -0.024885   -0.000253    0.004201    0.000043
   -1    0    1    5    2   -0.000526   -0.000021   -0.000801   -0.000031    0.001487    0.000058
   -1    0    1    6    2    0.000398    0.000018    0.000865    0.000038   -0.000298   -0.000013
   -1    0    1    7    2    0.000578    0.000025    0.000412    0.000018    0.000875    0.000038
   -1    0    1    8    2    0.000554    0.000024   -0.002027   -0.000090    0.001555    0.000069
   -1    0    1    1    3   -0.002638    0.000117   -0.005470    0.000242   -0.022437    0.000992
   -1    0    1    2    3    0.003006   -0.000149    0.003006   -0.000149   -0.009563    0.000475
   -1    0    1    3    3    0.003279    0.000000    0.023606   -0.000001    0.023605   -0.000001
   -1    0    1    4    3   -0.000454    0.000019   -0.001062    0.000042    0.032139   -0.001266
   -1    0    1    5    3    0.000376   -0.000004    0.001019   -0.000011    0.000979   -0.000010
   -1    0    1    6    3    0.001303   -0.000007    0.001311   -0.000007   -0.001179    0.000006
   -1    0    1    7    3    0.000728   -0.000004    0.000175   -0.000001   -0.000283    0.000002
   -1    0    1    8    3    0.001264   -0.000007    0.000127   -0.000001    0.001103   -0.000006
   -1    0    1    1    4   -0.001422    0.000007    0.023678   -0.000114   -0.002992    0.000015
   -1    0    1    2    4    0.000393   -0.000004    0.032100   -0.000329    0.025290   -0.000258
   -1    0    1    3    4    0.001229    0.000048    0.000017    0.000001    0.000017    0.000001
   -1    0    1    4    4    0.003279    0.000000   -0.023606    0.000001   -0.023605    0.000001
   -1    0    1    5    4   -0.000278   -0.000008   -0.000679   -0.000020    0.000048    0.000001
   -1    0    1    6    4    0.000280    0.000009   -0.000047   -0.000002    0.000678    0.000023
   -1    0    1    7    4    0.000926    0.000031    0.000827    0.000028    0.000827    0.000028
   -1    0    1    8    4    0.000283    0.000010   -0.000600   -0.000020   -0.000602   -0.000021
   -1    0    1    1    5    0.000894   -0.000030    0.000980   -0.000033    0.006607   -0.000223
   -1    0    1    2    5    0.000302   -0.000012    0.010745   -0.000422   -0.001992    0.000078
   -1    0    1    3    5    0.000745    0.000008   -0.000876   -0.000009    0.000745    0.000008
   -1    0    1    4    5   -0.000181    0.000005    0.005764   -0.000167   -0.007280    0.000211
   -1    0    1    5    5    0.000183   -0.000000    0.000001   -0.000000    0.000001    0.000000
   -1    0    1    6    5   -0.000095   -0.000000   -0.004181   -0.000021    0.005741    0.000028
   -1    0    1    7    5   -0.000144   -0.000001   -0.000668   -0.000003    0.000080    0.000000
   -1    0    1    8    5    0.000188    0.000001   -0.000421   -0.000002   -0.001199   -0.000006
   -1    0    1    1    6    0.000231   -0.000009    0.000319   -0.000013    0.003539   -0.000137
   -1    0    1    2    6   -0.001481    0.000065    0.003154   -0.000139    0.000483   -0.000021
   -1    0    1    3    6   -0.000418   -0.000002   -0.000805   -0.000004   -0.001190   -0.000006
   -1    0    1    4    6   -0.001003    0.000034    0.001538   -0.000052   -0.002935    0.000100
   -1    0    1    5    6   -0.000068    0.000000   -0.002187    0.000011    0.002884   -0.000014
   -1    0    1    6    6    0.000184    0.000000    0.000002   -0.000000    0.000002   -0.000000
   -1    0    1    7    6   -0.000190    0.000000   -0.001219    0.000001    0.000436   -0.000000
   -1    0    1    8    6    0.000136    0.000000    0.000506   -0.000000   -0.001185   -0.000000
   -1    0    1    1    7    0.001028   -0.000039    0.001059   -0.000040    0.002593   -0.000099
   -1    0    1    2    7    0.000542   -0.000024    0.010699   -0.000466   -0.000182    0.000008
   -1    0    1    3    7    0.000803    0.000005   -0.000913   -0.000006    0.000807    0.000005
   -1    0    1    4    7   -0.000213    0.000007    0.002323   -0.000077   -0.003814    0.000127
   -1    0    1    5    7   -0.000176    0.000001    0.001175   -0.000005   -0.000397    0.000002
   -1    0    1    6    7   -0.000194   -0.000000    0.000666    0.000000   -0.000085   -0.000000
   -1    0    1    7    7   -0.000285    0.000000    0.000472    0.000000    0.000472   -0.000000
   -1    0    1    8    7    0.000094    0.000000    0.000210    0.000000   -0.001128   -0.000001
   -1    0    1    1    8   -0.000859    0.000033    0.006452   -0.000251    0.002642   -0.000102
   -1    0    1    2    8   -0.000626    0.000028    0.011729   -0.000519    0.000368   -0.000016
   -1    0    1    3    8    0.001198    0.000006    0.000805    0.000004    0.000430    0.000002
   -1    0    1    4    8    0.000300   -0.000010    0.001589   -0.000054   -0.005412    0.000184
   -1    0    1    5    8    0.000223   -0.000001   -0.000439    0.000002    0.001112   -0.000006
   -1    0    1    6    8    0.000145   -0.000000    0.000452   -0.000000    0.001157   -0.000000
   -1    0    1    7    8    0.000094   -0.000000    0.000214   -0.000000   -0.001132    0.000001
   -1    0    1    8    8   -0.000280   -0.000000   -0.000477   -0.000000   -0.000477   -0.000000
   -1    0    2    1    1    0.000154   -0.000000    0.000657   -0.000000    0.000154   -0.000000
   -1    0    2    2    1   -0.001909    0.000010   -0.002269    0.000012    0.001472   -0.000008
   -1    0    2    3    1   -0.003045   -0.000135   -0.024863   -0.001100    0.004196    0.000186
   -1    0    2    4    1   -0.001472   -0.000007    0.002269    0.000011    0.001909    0.000009
   -1    0    2    5    1   -0.000604   -0.000020    0.000280    0.000009   -0.000604   -0.000020
   -1    0    2    6    1   -0.000047   -0.000002    0.000277    0.000011    0.000681    0.000026
   -1    0    2    7    1    0.000829    0.000032    0.000929    0.000035    0.000824    0.000031
   -1    0    2    8    1   -0.000675   -0.000026   -0.000274   -0.000011    0.000048    0.000002
   -1    0    2    1    2   -0.001909   -0.000010    0.001472    0.000008   -0.002269   -0.000012
   -1    0    2    2    2    0.000154    0.000000    0.000154    0.000000    0.000657   -0.000000
   -1    0    2    3    2    0.010808    0.000536   -0.041871   -0.002079   -0.015452   -0.000765
   -1    0    2    4    2    0.001472    0.000015   -0.001909   -0.000020   -0.002269   -0.000023
   -1    0    2    5    2   -0.002026   -0.000079    0.000553    0.000022    0.001547    0.000061
   -1    0    2    6    2    0.000868    0.000038    0.000393    0.000017   -0.000299   -0.000013
   -1    0    2    7    2    0.000405    0.000018    0.000584    0.000025    0.000875    0.000038
   -1    0    2    8    2   -0.000805   -0.000036   -0.000524   -0.000023    0.001493    0.000066
   -1    0    2    1    3   -0.007675    0.000340    0.006159   -0.000272    0.032550   -0.001438
   -1    0    2    2    3    0.001555   -0.000077    0.004457   -0.000221   -0.005120    0.000254
   -1    0    2    3    3   -0.001152    0.000000   -0.001151    0.000000   -0.001151    0.000000
   -1    0    2    4    3    0.002987   -0.000117   -0.011097    0.000437   -0.001418    0.000056
   -1    0    2    5    3   -0.007585    0.000079    0.003078   -0.000032    0.006020   -0.000062
   -1    0    2    6    3    0.005014   -0.000027   -0.002368    0.000013   -0.006760    0.000036
   -1    0    2    7    3   -0.003599    0.000022    0.000582   -0.000004    0.001768   -0.000011
   -1    0    2    8    3    0.005422   -0.000029   -0.002947    0.000016   -0.003623    0.000019
   -1    0    2    1    4    0.002269   -0.000011   -0.001471    0.000007    0.001909   -0.000009
   -1    0    2    2    4   -0.002269    0.000023   -0.001909    0.000019    0.001471   -0.000015
   -1    0    2    3    4    0.005063    0.000199    0.001497    0.000059   -0.001497   -0.000060
   -1    0    2    4    4    0.000657   -0.000000    0.000154   -0.000000    0.000154   -0.000000
   -1    0    2    5    4   -0.001548   -0.000045   -0.000554   -0.000016    0.002026    0.000059
   -1    0    2    6    4    0.001488    0.000051   -0.000525   -0.000018   -0.000801   -0.000027
   -1    0    2    7    4   -0.000884   -0.000029   -0.000583   -0.000019   -0.000406   -0.000014
   -1    0    2    8    4   -0.000315   -0.000011    0.000394    0.000013    0.000871    0.000030
   -1    0    2    1    5    0.000073   -0.000003   -0.003953    0.000134    0.000074   -0.000003
   -1    0    2    2    5    0.002819   -0.000111   -0.004265    0.000167   -0.000462    0.000018
   -1    0    2    3    5    0.001211    0.000013    0.000787    0.000008    0.001800    0.000019
   -1    0    2    4    5    0.000462   -0.000013    0.004266   -0.000124   -0.002820    0.000082
   -1    0    2    5    5   -0.000036   -0.000000   -0.000210   -0.000000   -0.000036   -0.000000
   -1    0    2    6    5   -0.000205   -0.000001    0.000040    0.000000    0.000135    0.000001
   -1    0    2    7    5   -0.000129   -0.000001    0.000129    0.000001   -0.000131   -0.000001
   -1    0    2    8    5   -0.000134   -0.000001   -0.000039   -0.000000    0.000203    0.000001
   -1    0    2    1    6    0.002224   -0.000086    0.000454   -0.000018   -0.001875    0.000073
   -1    0    2    2    6   -0.001652    0.000073    0.000358   -0.000016   -0.001096    0.000048
   -1    0    2    3    6    0.000062    0.000000   -0.001293   -0.000007   -0.001298   -0.000007
   -1    0    2    4    6    0.000521   -0.000018    0.002307   -0.000078   -0.002246    0.000076
   -1    0    2    5    6   -0.000441    0.000002    0.000001   -0.000000    0.000174   -0.000001
   -1    0    2    6    6   -0.000035    0.000000   -0.000036    0.000000   -0.000210    0.000000
   -1    0    2    7    6   -0.000228    0.000000    0.000015   -0.000000   -0.000013    0.000000
   -1    0    2    8    6   -0.000121   -0.000000   -0.000318   -0.000000    0.000151    0.000000
   -1    0    2    1    7    0.001336   -0.000051   -0.000420    0.000016    0.001362   -0.000052
   -1    0    2    2    7    0.000307   -0.000013   -0.000642    0.000028    0.001154   -0.000050
   -1    0    2    3    7    0.001039    0.000006   -0.001137   -0.000007   -0.001589   -0.000010
   -1    0    2    4    7   -0.001151    0.000038    0.000625   -0.000021   -0.000283    0.000009
   -1    0    2    5    7   -0.000235    0.000001   -0.000261    0.000001   -0.000239    0.000001
   -1    0    2    6    7    0.000252    0.000000    0.000201    0.000000    0.000299    0.000000
   -1    0    2    7    7    0.000270   -0.000000    0.000272   -0.000000    0.000272   -0.000000
   -1    0    2    8    7   -0.000301   -0.000000   -0.000198   -0.000000   -0.000251   -0.000000
   -1    0    2    1    8    0.001870   -0.000073   -0.000460    0.000018   -0.002204    0.000085
   -1    0    2    2    8   -0.002232    0.000099    0.002299   -0.000102    0.000535   -0.000024
   -1    0    2    3    8   -0.000495   -0.000003    0.000371    0.000002    0.000811    0.000004
   -1    0    2    4    8   -0.001107    0.000038    0.000348   -0.000012   -0.001641    0.000056
   -1    0    2    5    8   -0.000172    0.000001   -0.000003    0.000000    0.000439   -0.000002
   -1    0    2    6    8    0.000157   -0.000000   -0.000316    0.000000   -0.000122    0.000000
   -1    0    2    7    8    0.000012   -0.000000   -0.000011    0.000000    0.000233   -0.000000
   -1    0    2    8    8   -0.000212   -0.000000   -0.000037    0.000000   -0.000038    0.000000
   -1    1   -1    1    1   -0.000000   -0.000001    0.004154   -0.000000   -0.004154    0.000000
   -1    1   -1    2    1    0.008083   -0.000044   -0.002801    0.000015    0.002801   -0.000015
   -1    1   -1    3    1   -0.004463   -0.000197   -0.000300   -0.000013    0.004113    0.000181
   -1    1   -1    4    1    0.004117    0.000020    0.004467    0.000022    0.000300    0.000002
   -1    1   -1    5    1   -0.000604   -0.000020    0.000602    0.000020   -0.000281   -0.000010
   -1    1   -1    6    1   -0.000048   -0.000002   -0.000675   -0.000026   -0.000274   -0.000011
   -1    1   -1    7    1    0.000680    0.000026    0.000046    0.000002   -0.000279   -0.000011
   -1    1   -1    8    1   -0.000825   -0.000032    0.000829    0.000032    0.000927    0.000036
   -1    1   -1    1    2    0.008083    0.000044    0.002801    0.000015   -0.002801   -0.000015
   -1    1   -1    2    2   -0.000000   -0.000001   -0.004154   -0.000000    0.004153    0.000000
   -1    1   -1    3    2   -0.006125   -0.000304   -0.006126   -0.000304    0.013094    0.000650
   -1    1   -1    4    2   -0.004117   -0.000042   -0.000300   -0.000003   -0.004467   -0.000045
   -1    1   -1    5    2   -0.002027   -0.000080   -0.001552   -0.000061   -0.000553   -0.000022
   -1    1   -1    6    2    0.000870    0.000038    0.000313    0.000014   -0.000394   -0.000017
   -1    1   -1    7    2    0.000798    0.000035    0.001484    0.000065   -0.000527   -0.000023
   -1    1   -1    8    2   -0.000409   -0.000018    0.000883    0.000039    0.000580    0.000026
   -1    1   -1    1    3   -0.067209    0.002970   -0.001727    0.000076   -0.036217    0.001600
   -1    1   -1    2    3    0.006475   -0.000322   -0.008086    0.000401    0.019945   -0.000989
   -1    1   -1    3    3    0.000000   -0.000001    0.004154    0.000000    0.004154   -0.000000
   -1    1   -1    4    3   -0.035151    0.001383    0.002559   -0.000101    0.008721   -0.000344
   -1    1   -1    5    3    0.003947   -0.000041    0.003698   -0.000038    0.002962   -0.000031
   -1    1   -1    6    3   -0.008764    0.000047   -0.004431    0.000024   -0.002215    0.000012
   -1    1   -1    7    3    0.008770   -0.000053    0.003001   -0.000018    0.004922   -0.000030
   -1    1   -1    8    3    0.006816   -0.000037    0.000952   -0.000005    0.004312   -0.000023
   -1    1   -1    1    4   -0.012694    0.000061    0.005300   -0.000025   -0.008817    0.000042
   -1    1   -1    2    4    0.012694   -0.000130    0.008816   -0.000090   -0.005300    0.000054
   -1    1   -1    3    4   -0.000299   -0.000012   -0.004464   -0.000176    0.004113    0.000161
   -1    1   -1    4    4    0.000000   -0.000001   -0.004153    0.000000   -0.004153    0.000000
   -1    1   -1    5    4    0.000591    0.000017   -0.000590   -0.000017    0.000705    0.000020
   -1    1   -1    6    4   -0.000791   -0.000027    0.001794    0.000061    0.000574    0.000019
   -1    1   -1    7    4   -0.001799   -0.000060    0.000789    0.000026    0.000560    0.000019
   -1    1   -1    8    4    0.001360    0.000046   -0.001368   -0.000047    0.001818    0.000062
   -1    1   -1    1    5    0.000272   -0.000009    0.000592   -0.000020    0.000208   -0.000007
   -1    1   -1    2    5   -0.000888    0.000035    0.000124   -0.000005   -0.000504    0.000020
   -1    1   -1    3    5    0.000847    0.000009    0.000183    0.000002   -0.000500   -0.000005
   -1    1   -1    4    5    0.000077   -0.000002   -0.001105    0.000032   -0.001007    0.000029
   -1    1   -1    5    5   -0.000000    0.000000    0.000071   -0.000000   -0.000071    0.000000
   -1    1   -1    6    5   -0.000738   -0.000004   -0.000746   -0.000004    0.000060    0.000000
   -1    1   -1    7    5    0.000386    0.000002    0.000203    0.000001   -0.000284   -0.000001
   -1    1   -1    8    5   -0.000521   -0.000003   -0.000522   -0.000002   -0.000044   -0.000000
   -1    1   -1    1    6   -0.001306    0.000051   -0.001008    0.000039    0.000602   -0.000023
   -1    1   -1    2    6    0.002182   -0.000096    0.001730   -0.000077   -0.000019    0.000001
   -1    1   -1    3    6    0.000648    0.000003    0.000182    0.000001    0.000137    0.000001
   -1    1   -1    4    6   -0.001070    0.000036   -0.001238    0.000042   -0.000503    0.000017
   -1    1   -1    5    6   -0.000664    0.000003   -0.000798    0.000004    0.000111   -0.000001
   -1    1   -1    6    6    0.000001    0.000000   -0.000071    0.000000    0.000071   -0.000000
   -1    1   -1    7    6    0.000033   -0.000000    0.000033    0.000000    0.000046   -0.000000
   -1    1   -1    8    6    0.000108    0.000000    0.000290   -0.000000    0.000278    0.000000
   -1    1   -1    1    7    0.001508   -0.000057    0.000398   -0.000015    0.000589   -0.000022
   -1    1   -1    2    7   -0.001258    0.000055   -0.001697    0.000074    0.000070   -0.000003
   -1    1   -1    3    7    0.000334    0.000002    0.000606    0.000004    0.000967    0.000006
   -1    1   -1    4    7   -0.000288    0.000010    0.002185   -0.000073   -0.000219    0.000007
   -1    1   -1    5    7    0.000932   -0.000004    0.000887   -0.000004   -0.000268    0.000001
   -1    1   -1    6    7   -0.000620   -0.000000   -0.000618   -0.000000   -0.000004   -0.000000
   -1    1   -1    7    7   -0.000000    0.000000    0.000070    0.000000    0.000070    0.000000
   -1    1   -1    8    7   -0.000680   -0.000000   -0.000672   -0.000000   -0.000114   -0.000000
   -1    1   -1    1    8   -0.001058    0.000041    0.000050   -0.000002    0.001613   -0.000063
   -1    1   -1    2    8   -0.000400    0.000018   -0.000394    0.000017    0.000769   -0.000034
   -1    1   -1    3    8   -0.000364   -0.000002    0.000739    0.000004   -0.000570   -0.000003
   -1    1   -1    4    8    0.000863   -0.000029    0.000018   -0.000001    0.000695   -0.000024
   -1    1   -1    5    8   -0.001165    0.000006   -0.001165    0.000006   -0.000024    0.000000
   -1    1   -1    6    8    0.000857   -0.000000    0.000901   -0.000000    0.000291   -0.000000
   -1    1   -1    7    8   -0.000798    0.000001   -0.000664    0.000001   -0.000102    0.000000
   -1    1   -1    8    8    0.000001    0.000000   -0.000072   -0.000000   -0.000072   -0.000000
   -1    1    0    1    1   -0.023606    0.000001    0.023605   -0.000001   -0.003279   -0.000000
   -1    1    0    2    1    0.032100   -0.000175   -0.025292    0.000136   -0.000393    0.000002
   -1    1    0    3    1   -0.000867   -0.000038   -0.003868   -0.000171   -0.000867   -0.000038
   -1    1    0    4    1   -0.001497   -0.000007   -0.001498   -0.000007   -0.005067   -0.000025
   -1    1    0    5    1   -0.001364   -0.000046    0.001366    0.000046    0.001816    0.000061
   -1    1    0    6    1    0.001797    0.000070   -0.000793   -0.000031    0.000569    0.000022
   -1    1    0    7    1    0.000786    0.000030   -0.001794   -0.000068    0.000566    0.000022
   -1    1    0    8    1   -0.000593   -0.000023    0.000587    0.000023    0.000708    0.000027
   -1    1    0    1    2   -0.024887   -0.000134   -0.004201   -0.000023   -0.003048   -0.000016
   -1    1    0    2    2    0.000000    0.000001    0.000000   -0.000001    0.003502    0.000000
   -1    1    0    3    2    0.002244    0.000111    0.000522    0.000026    0.001667    0.000083
   -1    1    0    4    2   -0.004200   -0.000043   -0.024886   -0.000253   -0.003047   -0.000031
   -1    1    0    5    2    0.000878    0.000034   -0.000407   -0.000016    0.000583    0.000023
   -1    1    0    6    2    0.000303    0.000013    0.000865    0.000038   -0.000398   -0.000018
   -1    1    0    7    2    0.001494    0.000065    0.000807    0.000035   -0.000521   -0.000023
   -1    1    0    8    2   -0.001545   -0.000068   -0.002025   -0.000090   -0.000554   -0.000024
   -1    1    0    1    3   -0.032132    0.001420   -0.000455    0.000020    0.001061   -0.000047
   -1    1    0    2    3   -0.013632    0.000675    0.012021   -0.000597   -0.012627    0.000627
   -1    1    0    3    3   -0.000000   -0.000001    0.000000    0.000001    0.003502    0.000000
   -1    1    0    4    3   -0.057458    0.002262   -0.011493    0.000453    0.011492   -0.000453
   -1    1    0    5    3    0.000382   -0.000004    0.000208   -0.000002   -0.001372    0.000014
   -1    1    0    6    3    0.001771   -0.000010    0.001861   -0.000010   -0.000298    0.000002
   -1    1    0    7    3    0.000092   -0.000001   -0.000641    0.000004    0.001173   -0.000007
   -1    1    0    8    3   -0.001272    0.000007    0.000843   -0.000005   -0.000056    0.000000
   -1    1    0    1    4   -0.001499    0.000008   -0.001498    0.000008   -0.005067    0.000024
   -1    1    0    2    4   -0.025291    0.000258    0.032100   -0.000329   -0.000393    0.000004
   -1    1    0    3    4   -0.001668   -0.000066   -0.000523   -0.000021   -0.002245   -0.000088
   -1    1    0    4    4    0.023606   -0.000001   -0.023606    0.000001   -0.003279   -0.000000
   -1    1    0    5    4    0.000825    0.000024   -0.000826   -0.000024    0.000929    0.000027
   -1    1    0    6    4   -0.000676   -0.000023   -0.000048   -0.000002   -0.000279   -0.000009
   -1    1    0    7    4    0.000048    0.000002    0.000679    0.000023   -0.000273   -0.000009
   -1    1    0    8    4    0.000606    0.000021   -0.000602   -0.000020   -0.000280   -0.000010
   -1    1    0    1    5    0.003509   -0.000119    0.005330   -0.000180   -0.000761    0.000026
   -1    1    0    2    5   -0.000170    0.000007   -0.010737    0.000421    0.000535   -0.000021
   -1    1    0    3    5    0.000520    0.000005   -0.000150   -0.000001    0.000520    0.000005
   -1    1    0    4    5   -0.003828    0.000111   -0.002316    0.000067   -0.000212    0.000006
   -1    1    0    5    5   -0.000475   -0.000000    0.000475    0.000000    0.000282   -0.000000
   -1    1    0    6    5   -0.000082   -0.000000   -0.000669   -0.000003   -0.000192   -0.000001
   -1    1    0    7    5    0.000404    0.000002    0.001180    0.000005    0.000174    0.000001
   -1    1    0    8    5   -0.001127   -0.000006   -0.000205   -0.000001    0.000094    0.000000
   -1    1    0    1    6   -0.008926    0.000346   -0.010751    0.000417    0.000523   -0.000020
   -1    1    0    2    6   -0.000485    0.000021    0.003113   -0.000138    0.001484   -0.000066
   -1    1    0    3    6    0.000825    0.000004    0.000008    0.000000   -0.001039   -0.000006
   -1    1    0    4    6    0.002914   -0.000099    0.001522   -0.000052    0.001003   -0.000034
   -1    1    0    5    6    0.000434   -0.000002    0.001217   -0.000006   -0.000188    0.000001
   -1    1    0    6    6   -0.000001    0.000000    0.000001    0.000000   -0.000185    0.000000
   -1    1    0    7    6    0.002880   -0.000002    0.002189   -0.000001   -0.000066    0.000000
   -1    1    0    8    6    0.001196    0.000000    0.000523    0.000000   -0.000137   -0.000000
   -1    1    0    1    7    0.012847   -0.000490    0.011108   -0.000423   -0.000578    0.000022
   -1    1    0    2    7   -0.002000    0.000087   -0.010819    0.000471    0.000297   -0.000013
   -1    1    0    3    7    0.000228    0.000001    0.000708    0.000004    0.000240    0.000001
   -1    1    0    4    7   -0.007318    0.000244   -0.005779    0.000192   -0.000184    0.000006
   -1    1    0    5    7   -0.000068    0.000000   -0.000671    0.000003    0.000142   -0.000001
   -1    1    0    6    7    0.005745    0.000004    0.004175    0.000003   -0.000093   -0.000000
   -1    1    0    7    7    0.000002    0.000000   -0.000002    0.000000   -0.000182    0.000000
   -1    1    0    8    7   -0.001229   -0.000001    0.000405    0.000000    0.000189    0.000000
   -1    1    0    1    8   -0.010322    0.000400   -0.011898    0.000462   -0.000363    0.000014
   -1    1    0    2    8   -0.000390    0.000017    0.011643   -0.000515    0.000626   -0.000028
   -1    1    0    3    8    0.001036    0.000006   -0.000003   -0.000000   -0.000817   -0.000004
   -1    1    0    4    8    0.005365   -0.000182    0.001552   -0.000052   -0.000304    0.000010
   -1    1    0    5    8   -0.001136    0.000006   -0.000218    0.000001    0.000094   -0.000000
   -1    1    0    6    8   -0.001131    0.000000    0.000469   -0.000000   -0.000146    0.000000
   -1    1    0    7    8    0.001089   -0.000001    0.000431   -0.000000    0.000225   -0.000000
   -1    1    0    8    8    0.000474   -0.000000   -0.000474   -0.000000    0.000283    0.000000
   -1    1    1    1    1   -0.004154    0.000000   -0.000000    0.000000   -0.004154    0.000000
   -1    1    1    2    1    0.008816   -0.000048    0.012694   -0.000069   -0.005300    0.000029
   -1    1    1    3    1   -0.000523   -0.000023   -0.001667   -0.000074   -0.002245   -0.000099
   -1    1    1    4    1    0.005300    0.000025   -0.012694   -0.000061   -0.008817   -0.000042
   -1    1    1    5    1    0.000848    0.000029   -0.000851   -0.000029    0.000848    0.000029
   -1    1    1    6    1   -0.000887   -0.000034   -0.000353   -0.000014    0.000360    0.000014
   -1    1    1    7    1    0.000362    0.000014    0.000885    0.000034    0.000354    0.000013
   -1    1    1    8    1   -0.000352   -0.000014    0.000361    0.000014    0.000887    0.000034
   -1    1    1    1    2   -0.000300   -0.000002   -0.004116   -0.000022   -0.004467   -0.000024
   -1    1    1    2    2   -0.004154    0.000000   -0.000000    0.000000    0.004153   -0.000000
   -1    1    1    3    2    0.000522    0.000026    0.002245    0.000111    0.001667    0.000083
   -1    1    1    4    2    0.002801    0.000029    0.008082    0.000083   -0.002801   -0.000029
   -1    1    1    5    2   -0.000886   -0.000035    0.000358    0.000014   -0.000356   -0.000014
   -1    1    1    6    2    0.000849    0.000037    0.000845    0.000037   -0.000852   -0.000038
   -1    1    1    7    2   -0.000361   -0.000016   -0.000355   -0.000015   -0.000883   -0.000038
   -1    1    1    8    2    0.000352    0.000016   -0.000890   -0.000039   -0.000358   -0.000016
   -1    1    1    1    3    0.001703   -0.000075    0.001168   -0.000052    0.001064   -0.000047
   -1    1    1    2    3   -0.000961    0.000048   -0.000694    0.000035   -0.000251    0.000012
   -1    1    1    3    3    0.004153   -0.000000   -0.000000    0.000000    0.004154   -0.000000
   -1    1    1    4    3    0.001524   -0.000060    0.001348   -0.000053   -0.000946    0.000037
   -1    1    1    5    3   -0.001314    0.000014    0.000900   -0.000009   -0.000979    0.000010
   -1    1    1    6    3    0.002980   -0.000016    0.000656   -0.000004    0.000604   -0.000003
   -1    1    1    7    3    0.000424   -0.000003   -0.000977    0.000006    0.000737   -0.000004
   -1    1    1    8    3    0.000742   -0.000004   -0.000168    0.000001   -0.000280    0.000002
   -1    1    1    1    4    0.004467   -0.000021    0.004116   -0.000020    0.000300   -0.000001
   -1    1    1    2    4   -0.002801    0.000029    0.008082   -0.000083    0.002801   -0.000029
   -1    1    1    3    4   -0.003869   -0.000152   -0.000868   -0.000034   -0.000868   -0.000034
   -1    1    1    4    4    0.004154   -0.000000    0.000000    0.000000   -0.004153    0.000000
   -1    1    1    5    4    0.000356    0.000010   -0.000358   -0.000010    0.000886    0.000026
   -1    1    1    6    4   -0.000357   -0.000012   -0.000883   -0.000030    0.000359    0.000012
   -1    1    1    7    4    0.000891    0.000029    0.000356    0.000012    0.000354    0.000012
   -1    1    1    8    4   -0.000844   -0.000028    0.000853    0.000029    0.000850    0.000029
   -1    1    1    1    5    0.006315   -0.000214    0.000693   -0.000023    0.006315   -0.000214
   -1    1    1    2    5   -0.006257    0.000245    0.017605   -0.000691    0.004823   -0.000189
   -1    1    1    3    5   -0.000744   -0.000008   -0.001246   -0.000013   -0.000854   -0.000009
   -1    1    1    4    5   -0.004823    0.000140   -0.017608    0.000511    0.006258   -0.000181
   -1    1    1    5    5   -0.000071   -0.000000    0.000001   -0.000000   -0.000071   -0.000000
   -1    1    1    6    5   -0.000025   -0.000000    0.001778    0.000009    0.000560    0.000003
   -1    1    1    7    5   -0.000046   -0.000000   -0.001398   -0.000006   -0.000050   -0.000000
   -1    1    1    8    5   -0.000560   -0.000003   -0.001799   -0.000009    0.000021    0.000000
   -1    1    1    1    6    0.002952   -0.000115    0.001436   -0.000056    0.004669   -0.000181
   -1    1    1    2    6   -0.003093    0.000137    0.005639   -0.000250    0.003089   -0.000136
   -1    1    1    3    6    0.001835    0.000010   -0.000525   -0.000003    0.000239    0.000001
   -1    1    1    4    6   -0.004345    0.000147   -0.015219    0.000517    0.004348   -0.000148
   -1    1    1    5    6   -0.000094    0.000001    0.000485   -0.000003    0.000564   -0.000003
   -1    1    1    6    6   -0.000072    0.000000    0.000000   -0.000000    0.000072   -0.000000
   -1    1    1    7    6    0.000563   -0.000000   -0.000480    0.000000   -0.000094    0.000000
[...]
    1    1    0    5    7    0.000353   -0.000002   -0.000198    0.000001    0.000353   -0.000002
    1    1    0    6    7    0.000074    0.000000    0.000042    0.000000   -0.000026   -0.000000
    1    1    0    7    7    0.000036   -0.000000   -0.000211    0.000000    0.000037   -0.000000
    1    1    0    8    7    0.000024    0.000000   -0.000046   -0.000000   -0.000078   -0.000000
    1    1    0    1    8   -0.000423    0.000016    0.000812   -0.000032   -0.001190    0.000046
    1    1    0    2    8    0.002108   -0.000093   -0.000012    0.000001   -0.001652    0.000073
    1    1    0    3    8    0.000240    0.000001   -0.000278   -0.000001    0.003548    0.000019
    1    1    0    4    8    0.000095   -0.000003    0.000718   -0.000024   -0.000014    0.000000
    1    1    0    5    8   -0.000252    0.000001    0.000222   -0.000001   -0.000328    0.000002
    1    1    0    6    8    0.000392   -0.000000    0.000125    0.000000    0.000195   -0.000000
    1    1    0    7    8    0.000084   -0.000000   -0.000183    0.000000   -0.000216    0.000000
    1    1    0    8    8    0.000037    0.000000   -0.000035   -0.000000    0.000211    0.000000
    2   -1   -1    1    1    0.000154   -0.000000   -0.000154    0.000000   -0.000657   -0.000000
    2   -1   -1    2    1   -0.001909    0.000010   -0.001471    0.000008    0.002269   -0.000012
    2   -1   -1    3    1   -0.002799   -0.000124    0.008075    0.000357   -0.002799   -0.000124
    2   -1   -1    4    1   -0.001385   -0.000007    0.001385    0.000007   -0.000867   -0.000004
    2   -1   -1    5    1    0.002453    0.000083   -0.002511   -0.000085    0.002513    0.000085
    2   -1   -1    6    1    0.003299    0.000128   -0.000135   -0.000005    0.000130    0.000005
    2   -1   -1    7    1   -0.003402   -0.000130   -0.002227   -0.000085    0.001234    0.000047
    2   -1   -1    8    1    0.003365    0.000130    0.001215    0.000047   -0.002216   -0.000086
    2   -1   -1    1    2   -0.001909   -0.000010    0.002269    0.000012   -0.001471   -0.000008
    2   -1   -1    2    2    0.000154    0.000000   -0.000657   -0.000000   -0.000154   -0.000000
    2   -1   -1    3    2   -0.005294   -0.000263   -0.012679   -0.000629   -0.008806   -0.000437
    2   -1   -1    4    2    0.001385    0.000014    0.000866    0.000009   -0.001385   -0.000014
    2   -1   -1    5    2    0.007570    0.000297    0.003471    0.000136   -0.003479   -0.000136
    2   -1   -1    6    2    0.006840    0.000302    0.006854    0.000303   -0.006832   -0.000302
    2   -1   -1    7    2   -0.003487   -0.000152   -0.003507   -0.000153    0.007587    0.000330
    2   -1   -1    8    2    0.003439    0.000152    0.007533    0.000333   -0.003421   -0.000151
    2   -1   -1    1    3    0.003015   -0.000133    0.000564   -0.000025    0.000721   -0.000032
    2   -1   -1    2    3   -0.003244    0.000161   -0.000762    0.000038    0.000995   -0.000049
    2   -1   -1    3    3    0.000657    0.000000   -0.000154    0.000000   -0.000154    0.000000
    2   -1   -1    4    3    0.001616   -0.000064    0.001964   -0.000077   -0.001256    0.000049
    2   -1   -1    5    3   -0.000902    0.000009    0.000207   -0.000002   -0.001269    0.000013
    2   -1   -1    6    3   -0.001154    0.000006   -0.001275    0.000007    0.002343   -0.000013
    2   -1   -1    7    3    0.002863   -0.000017   -0.001374    0.000008    0.002084   -0.000013
    2   -1   -1    8    3    0.000990   -0.000005   -0.000628    0.000003    0.002461   -0.000013
    2   -1   -1    1    4    0.000916   -0.000004   -0.000916    0.000004   -0.000581    0.000003
    2   -1   -1    2    4   -0.000915    0.000009    0.000581   -0.000006    0.000916   -0.000009
    2   -1   -1    3    4    0.008810    0.000347    0.012685    0.000500    0.005296    0.000208
    2   -1   -1    4    4   -0.001151   -0.000000    0.001152    0.000000    0.001152    0.000000
    2   -1   -1    5    4    0.001228    0.000036    0.003391    0.000098   -0.002224   -0.000064
    2   -1   -1    6    4   -0.000149   -0.000005    0.003297    0.000112    0.000148    0.000005
    2   -1   -1    7    4   -0.002209   -0.000074   -0.003398   -0.000113    0.001211    0.000040
    2   -1   -1    8    4   -0.002520   -0.000086    0.002430    0.000082    0.002515    0.000086
    2   -1   -1    1    5   -0.000421    0.000014   -0.000266    0.000009   -0.000647    0.000022
    2   -1   -1    2    5   -0.000787    0.000031   -0.000363    0.000014   -0.000986    0.000039
    2   -1   -1    3    5   -0.000253   -0.000003    0.000433    0.000004   -0.000253   -0.000003
    2   -1   -1    4    5    0.000615   -0.000018   -0.000146    0.000004    0.000516   -0.000015
    2   -1   -1    5    5   -0.000037    0.000000    0.000036   -0.000000    0.000211   -0.000000
    2   -1   -1    6    5    0.000049    0.000000   -0.000243   -0.000001   -0.000148   -0.000001
    2   -1   -1    7    5    0.000365    0.000002    0.000077    0.000000   -0.000167   -0.000001
    2   -1   -1    8    5    0.000338    0.000002   -0.000093   -0.000000    0.000165    0.000001
    2   -1   -1    1    6    0.000204   -0.000008   -0.000950    0.000037    0.000651   -0.000025
    2   -1   -1    2    6   -0.000206    0.000009    0.001968   -0.000087    0.000203   -0.000009
    2   -1   -1    3    6   -0.000506   -0.000003    0.000190    0.000001   -0.000367   -0.000002
    2   -1   -1    4    6   -0.000386    0.000013   -0.000714    0.000024    0.000388   -0.000013
    2   -1   -1    5    6   -0.000190    0.000001   -0.000281    0.000001   -0.000110    0.000001
    2   -1   -1    6    6   -0.000037   -0.000000    0.000212    0.000000    0.000037    0.000000
    2   -1   -1    7    6   -0.000110    0.000000    0.000281   -0.000000   -0.000192    0.000000
    2   -1   -1    8    6    0.000024   -0.000000   -0.000047    0.000000   -0.000024   -0.000000
    2   -1   -1    1    7   -0.000792    0.000030    0.000896   -0.000034   -0.000675    0.000026
    2   -1   -1    2    7   -0.000993    0.000043    0.000357   -0.000016   -0.000784    0.000034
    2   -1   -1    3    7    0.000240    0.000001   -0.000080   -0.000001    0.000239    0.000001
    2   -1   -1    4    7    0.000518   -0.000017    0.000149   -0.000005    0.000616   -0.000021
    2   -1   -1    5    7    0.000169   -0.000001    0.000075   -0.000000   -0.000366    0.000002
    2   -1   -1    6    7   -0.000149   -0.000000    0.000245    0.000000    0.000048    0.000000
    2   -1   -1    7    7   -0.000210    0.000000    0.000035   -0.000000    0.000035   -0.000000
    2   -1   -1    8    7    0.000165    0.000000    0.000093    0.000000    0.000336    0.000000
    2   -1   -1    1    8   -0.002037    0.000079   -0.000361    0.000014   -0.000574    0.000022
    2   -1   -1    2    8    0.001314   -0.000058    0.000446   -0.000020   -0.001322    0.000058
    2   -1   -1    3    8    0.000372    0.000002   -0.000191   -0.000001    0.000510    0.000003
    2   -1   -1    4    8    0.000054   -0.000002   -0.000324    0.000011   -0.000049    0.000002
    2   -1   -1    5    8   -0.000283    0.000001    0.000233   -0.000001    0.000207   -0.000001
    2   -1   -1    6    8    0.000271   -0.000000   -0.000170    0.000000   -0.000272    0.000000
    2   -1   -1    7    8    0.000207   -0.000000   -0.000232    0.000000   -0.000284    0.000000
    2   -1   -1    8    8    0.000272   -0.000000   -0.000270    0.000000   -0.000271    0.000000
    2   -1    0    1    1    0.001152   -0.000000   -0.001152    0.000000    0.001152   -0.000000
    2   -1    0    2    1    0.000581   -0.000003   -0.000916    0.000005    0.000916   -0.000005
    2   -1    0    3    1   -0.025267   -0.001116    0.032070    0.001419    0.000392    0.000017
    2   -1    0    4    1   -0.000916   -0.000004    0.000916    0.000004   -0.000581   -0.000003
    2   -1    0    5    1   -0.001364   -0.000046   -0.001818   -0.000061   -0.001364   -0.000046
    2   -1    0    6    1    0.001795    0.000070   -0.000563   -0.000022    0.000786    0.000031
    2   -1    0    7    1    0.000588    0.000022    0.000704    0.000027    0.000593    0.000023
    2   -1    0    8    1   -0.000793   -0.000031    0.000570    0.000022   -0.001797   -0.000070
    2   -1    0    1    2    0.000867    0.000005    0.001385    0.000008   -0.001385   -0.000008
    2   -1    0    2    2   -0.000657    0.000000    0.000154   -0.000000   -0.000154   -0.000000
    2   -1    0    3    2   -0.051700   -0.002565   -0.051700   -0.002565   -0.005755   -0.000286
    2   -1    0    4    2    0.002269    0.000023   -0.001909   -0.000020   -0.001472   -0.000015
    2   -1    0    5    2    0.000878    0.000034   -0.000580   -0.000023    0.000409    0.000016
    2   -1    0    6    2    0.000304    0.000013    0.000391    0.000017   -0.000871   -0.000038
    2   -1    0    7    2    0.001554    0.000068   -0.000553   -0.000024   -0.002027   -0.000088
    2   -1    0    8    2   -0.001484   -0.000066   -0.000529   -0.000023    0.000797    0.000035
    2   -1    0    1    3    0.000419   -0.000018   -0.009679    0.000427   -0.001571    0.000070
    2   -1    0    2    3    0.013466   -0.000668    0.002900   -0.000144    0.008347   -0.000414
    2   -1    0    3    3   -0.000154    0.000000    0.000657   -0.000000   -0.000154    0.000000
    2   -1    0    4    3    0.002610   -0.000103    0.005719   -0.000225   -0.002512    0.000099
    2   -1    0    5    3   -0.001922    0.000020   -0.001551    0.000016    0.000418   -0.000004
    2   -1    0    6    3   -0.002751    0.000015   -0.003033    0.000016    0.001218   -0.000006
    2   -1    0    7    3   -0.001597    0.000010   -0.002550    0.000016   -0.002221    0.000014
    2   -1    0    8    3   -0.001069    0.000006   -0.002413    0.000013   -0.000327    0.000002
    2   -1    0    1    4    0.001385   -0.000007   -0.001385    0.000007   -0.000867    0.000004
    2   -1    0    2    4   -0.001472    0.000015   -0.001909    0.000020    0.002269   -0.000023
    2   -1    0    3    4    0.032075    0.001264   -0.025273   -0.000994    0.000393    0.000016
    2   -1    0    4    4   -0.000154    0.000000    0.000154   -0.000000   -0.000657    0.000000
    2   -1    0    5    4   -0.000409   -0.000012    0.000581    0.000017   -0.000878   -0.000025
    2   -1    0    6    4    0.000805    0.000027   -0.000523   -0.000018   -0.001492   -0.000051
    2   -1    0    7    4    0.002027    0.000067    0.000554    0.000018   -0.001550   -0.000052
    2   -1    0    8    4   -0.000865   -0.000029    0.000399    0.000014    0.000303    0.000010
    2   -1    0    1    5   -0.000213    0.000007    0.002221   -0.000075   -0.000213    0.000007
    2   -1    0    2    5    0.001156   -0.000045    0.000618   -0.000024    0.000286   -0.000011
    2   -1    0    3    5   -0.000794   -0.000008    0.000495    0.000005    0.000668    0.000007
    2   -1    0    4    5   -0.000287    0.000008   -0.000618    0.000018   -0.001156    0.000034
    2   -1    0    5    5   -0.000271    0.000000    0.000271   -0.000000   -0.000271    0.000000
    2   -1    0    6    5    0.000299    0.000001   -0.000199   -0.000001    0.000252    0.000001
    2   -1    0    7    5    0.000237    0.000001   -0.000261   -0.000001    0.000238    0.000001
    2   -1    0    8    5   -0.000253   -0.000001    0.000199    0.000001   -0.000299   -0.000001
    2   -1    0    1    6    0.002236   -0.000087    0.002288   -0.000089   -0.001406    0.000054
    2   -1    0    2    6    0.001097   -0.000048    0.000367   -0.000016    0.001658   -0.000073
    2   -1    0    3    6   -0.000899   -0.000005   -0.000212   -0.000001    0.001909    0.000010
    2   -1    0    4    6    0.002240   -0.000076    0.002297   -0.000078   -0.000522    0.000018
    2   -1    0    5    6   -0.000012    0.000000   -0.000013    0.000000   -0.000228    0.000001
    2   -1    0    6    6    0.000211   -0.000000   -0.000037    0.000000    0.000036   -0.000000
    2   -1    0    7    6    0.000175   -0.000000    0.000000    0.000000   -0.000443    0.000000
    2   -1    0    8    6   -0.000150   -0.000000   -0.000317   -0.000000    0.000117    0.000000
    2   -1    0    1    7   -0.004164    0.000159   -0.002924    0.000112   -0.004143    0.000158
    2   -1    0    2    7   -0.000458    0.000020    0.004255   -0.000185    0.002807   -0.000122
    2   -1    0    3    7    0.000121    0.000001   -0.000443   -0.000003    0.000275    0.000002
    2   -1    0    4    7   -0.002831    0.000094   -0.004272    0.000142    0.000455   -0.000015
    2   -1    0    5    7    0.000129   -0.000001    0.000130   -0.000001    0.000130   -0.000001
    2   -1    0    6    7    0.000135    0.000000   -0.000038   -0.000000   -0.000204   -0.000000
    2   -1    0    7    7    0.000036    0.000000   -0.000211   -0.000000    0.000037    0.000000
    2   -1    0    8    7    0.000201    0.000000    0.000042    0.000000   -0.000134   -0.000000
    2   -1    0    1    8    0.001366   -0.000053   -0.002324    0.000090   -0.002255    0.000087
    2   -1    0    2    8   -0.000531    0.000024    0.002323   -0.000103    0.002247   -0.000099
    2   -1    0    3    8    0.000317    0.000002    0.000792    0.000004    0.000872    0.000005
    2   -1    0    4    8    0.001627   -0.000055    0.000326   -0.000011    0.001104   -0.000037
    2   -1    0    5    8    0.000229   -0.000001    0.000014   -0.000000    0.000014   -0.000000
    2   -1    0    6    8    0.000125   -0.000000   -0.000318    0.000000   -0.000157    0.000000
    2   -1    0    7    8    0.000438   -0.000000    0.000003   -0.000000   -0.000170    0.000000
    2   -1    0    8    8    0.000037   -0.000000   -0.000035    0.000000    0.000211   -0.000000
    2    0   -1    1    1    0.000154   -0.000000    0.000657   -0.000000    0.000154   -0.000000
    2    0   -1    2    1   -0.001909    0.000010   -0.002269    0.000012    0.001472   -0.000008
    2    0   -1    3    1   -0.003045   -0.000135   -0.024863   -0.001100    0.004196    0.000186
    2    0   -1    4    1   -0.001472   -0.000007    0.002269    0.000011    0.001909    0.000009
    2    0   -1    5    1   -0.000604   -0.000020    0.000280    0.000009   -0.000604   -0.000020
    2    0   -1    6    1   -0.000047   -0.000002    0.000277    0.000011    0.000681    0.000026
    2    0   -1    7    1    0.000829    0.000032    0.000929    0.000035    0.000824    0.000031
    2    0   -1    8    1   -0.000675   -0.000026   -0.000274   -0.000011    0.000048    0.000002
    2    0   -1    1    2   -0.001909   -0.000010    0.001472    0.000008   -0.002269   -0.000012
    2    0   -1    2    2    0.000154    0.000000    0.000154    0.000000    0.000657   -0.000000
    2    0   -1    3    2    0.010808    0.000536   -0.041871   -0.002079   -0.015452   -0.000765
    2    0   -1    4    2    0.001472    0.000015   -0.001909   -0.000020   -0.002269   -0.000023
    2    0   -1    5    2   -0.002026   -0.000079    0.000553    0.000022    0.001547    0.000061
    2    0   -1    6    2    0.000868    0.000038    0.000393    0.000017   -0.000299   -0.000013
    2    0   -1    7    2    0.000405    0.000018    0.000584    0.000025    0.000875    0.000038
    2    0   -1    8    2   -0.000805   -0.000036   -0.000524   -0.000023    0.001493    0.000066
    2    0   -1    1    3   -0.007675    0.000340    0.006159   -0.000272    0.032550   -0.001438
    2    0   -1    2    3    0.001555   -0.000077    0.004457   -0.000221   -0.005120    0.000254
    2    0   -1    3    3   -0.001152    0.000000   -0.001151    0.000000   -0.001151    0.000000
    2    0   -1    4    3    0.002987   -0.000117   -0.011097    0.000437   -0.001418    0.000056
    2    0   -1    5    3   -0.007585    0.000079    0.003078   -0.000032    0.006020   -0.000062
    2    0   -1    6    3    0.005014   -0.000027   -0.002368    0.000013   -0.006760    0.000036
    2    0   -1    7    3   -0.003599    0.000022    0.000582   -0.000004    0.001768   -0.000011
    2    0   -1    8    3    0.005422   -0.000029   -0.002947    0.000016   -0.003623    0.000019
    2    0   -1    1    4    0.002269   -0.000011   -0.001471    0.000007    0.001909   -0.000009
    2    0   -1    2    4   -0.002269    0.000023   -0.001909    0.000019    0.001471   -0.000015
    2    0   -1    3    4    0.005063    0.000199    0.001497    0.000059   -0.001497   -0.000060
    2    0   -1    4    4    0.000657   -0.000000    0.000154   -0.000000    0.000154   -0.000000
    2    0   -1    5    4   -0.001548   -0.000045   -0.000554   -0.000016    0.002026    0.000059
    2    0   -1    6    4    0.001488    0.000051   -0.000525   -0.000018   -0.000801   -0.000027
    2    0   -1    7    4   -0.000884   -0.000029   -0.000583   -0.000019   -0.000406   -0.000014
    2    0   -1    8    4   -0.000315   -0.000011    0.000394    0.000013    0.000871    0.000030
    2    0   -1    1    5    0.000073   -0.000003   -0.003953    0.000134    0.000074   -0.000003
    2    0   -1    2    5    0.002819   -0.000111   -0.004265    0.000167   -0.000462    0.000018
    2    0   -1    3    5    0.001211    0.000013    0.000787    0.000008    0.001800    0.000019
    2    0   -1    4    5    0.000462   -0.000013    0.004266   -0.000124   -0.002820    0.000082
    2    0   -1    5    5   -0.000036   -0.000000   -0.000210   -0.000000   -0.000036   -0.000000
    2    0   -1    6    5   -0.000205   -0.000001    0.000040    0.000000    0.000135    0.000001
    2    0   -1    7    5   -0.000129   -0.000001    0.000129    0.000001   -0.000131   -0.000001
    2    0   -1    8    5   -0.000134   -0.000001   -0.000039   -0.000000    0.000203    0.000001
    2    0   -1    1    6    0.002224   -0.000086    0.000454   -0.000018   -0.001875    0.000073
    2    0   -1    2    6   -0.001652    0.000073    0.000358   -0.000016   -0.001096    0.000048
    2    0   -1    3    6    0.000062    0.000000   -0.001293   -0.000007   -0.001298   -0.000007
    2    0   -1    4    6    0.000521   -0.000018    0.002307   -0.000078   -0.002246    0.000076
    2    0   -1    5    6   -0.000441    0.000002    0.000001   -0.000000    0.000174   -0.000001
    2    0   -1    6    6   -0.000035    0.000000   -0.000036    0.000000   -0.000210    0.000000
    2    0   -1    7    6   -0.000228    0.000000    0.000015   -0.000000   -0.000013    0.000000
    2    0   -1    8    6   -0.000121   -0.000000   -0.000318   -0.000000    0.000151    0.000000
    2    0   -1    1    7    0.001336   -0.000051   -0.000420    0.000016    0.001362   -0.000052
    2    0   -1    2    7    0.000307   -0.000013   -0.000642    0.000028    0.001154   -0.000050
    2    0   -1    3    7    0.001039    0.000006   -0.001137   -0.000007   -0.001589   -0.000010
    2    0   -1    4    7   -0.001151    0.000038    0.000625   -0.000021   -0.000283    0.000009
    2    0   -1    5    7   -0.000235    0.000001   -0.000261    0.000001   -0.000239    0.000001
    2    0   -1    6    7    0.000252    0.000000    0.000201    0.000000    0.000299    0.000000
    2    0   -1    7    7    0.000270   -0.000000    0.000272   -0.000000    0.000272   -0.000000
    2    0   -1    8    7   -0.000301   -0.000000   -0.000198   -0.000000   -0.000251   -0.000000
    2    0   -1    1    8    0.001870   -0.000073   -0.000460    0.000018   -0.002204    0.000085
    2    0   -1    2    8   -0.002232    0.000099    0.002299   -0.000102    0.000535   -0.000024
    2    0   -1    3    8   -0.000495   -0.000003    0.000371    0.000002    0.000811    0.000004
    2    0   -1    4    8   -0.001107    0.000038    0.000348   -0.000012   -0.001641    0.000056
    2    0   -1    5    8   -0.000172    0.000001   -0.000003    0.000000    0.000439   -0.000002
    2    0   -1    6    8    0.000157   -0.000000   -0.000316    0.000000   -0.000122    0.000000
    2    0   -1    7    8    0.000012   -0.000000   -0.000011    0.000000    0.000233   -0.000000
    2    0   -1    8    8   -0.000212   -0.000000   -0.000037    0.000000   -0.000038    0.000000
