
     Program PWSCF v.7.1 starts on 30Jul2024 at 13:46:44 

     This program is part of the open-source Quantum ESPRESSO suite
     for quantum simulation of materials; please cite
         "P. Giannozzi et al., J. Phys.:Condens. Matter 21 395502 (2009);
         "P. Giannozzi et al., J. Phys.:Condens. Matter 29 465901 (2017);
         "P. Giannozzi et al., J. Chem. Phys. 152 154105 (2020);
          URL http://www.quantum-espresso.org", 
     in publications or presentations arising from this work. More details at
     http://www.quantum-espresso.org/quote

     Parallel version (MPI), running on     2 processors

     MPI processes distributed on     1 nodes
     220433 MiB available memory on the printing compute node when the environment starts

     Waiting for input...
     Reading input from standard input

     Current dimensions of program PWSCF are:
     Max number of different atomic species (ntypx) = 10
     Max number of k-points (npk) =  40000
     Max angular momentum in pseudopotentials (lmaxx) =  4

     Atomic positions and unit cell read from directory:
     ./LiF.save/
     Atomic positions from file used, from input discarded


     R & G space division:  proc/nbgrp/npool/nimage =       2
     Subspace diagonalization in iterative solution of the eigenvalue problem:
     a serial algorithm will be used


     Parallelization info
     --------------------
     sticks:   dense  smooth     PW     G-vecs:    dense   smooth      PW
     Min         324     324     99                 5507     5507     903
     Max         325     325    100                 5510     5510     904
     Sum         649     649    199                11017    11017    1807

     Using Slab Decomposition



     bravais-lattice index     =            2
     lattice parameter (alat)  =       7.7035  a.u.
     unit-cell volume          =     114.2879 (a.u.)^3
     number of atoms/cell      =            2
     number of atomic types    =            2
     number of electrons       =        10.00
     number of Kohn-Sham states=           10
     kinetic-energy cutoff     =      80.0000  Ry
     charge density cutoff     =     320.0000  Ry
     Exchange-correlation= SLA  PW   NOGX NOGC
                           (   1   4   0   0   0   0   0)

     celldm(1)=   7.703476  celldm(2)=   0.000000  celldm(3)=   0.000000
     celldm(4)=   0.000000  celldm(5)=   0.000000  celldm(6)=   0.000000

     crystal axes: (cart. coord. in units of alat)
               a(1) = (  -0.500000   0.000000   0.500000 )  
               a(2) = (   0.000000   0.500000   0.500000 )  
               a(3) = (  -0.500000   0.500000   0.000000 )  

     reciprocal axes: (cart. coord. in units 2 pi/alat)
               b(1) = ( -1.000000 -1.000000  1.000000 )  
               b(2) = (  1.000000  1.000000  1.000000 )  
               b(3) = ( -1.000000  1.000000 -1.000000 )  


     PseudoPot. # 1 for Li read from file:
     ../psps/Li.upf
     MD5 check sum: cbd9518a540ce8f7f4a0218f2f072fdd
     Pseudo is Norm-conserving, Zval =  3.0
     Generated using ONCVPSP code by D. R. Hamann
     Using radial grid of 1944 points,  4 beta functions with: 
                l(1) =   0
                l(2) =   0
                l(3) =   1
                l(4) =   1

     PseudoPot. # 2 for F  read from file:
     ../psps/F.upf
     MD5 check sum: 3dea638f9c9153f3282cad43c3474f58
     Pseudo is Norm-conserving + core correction, Zval =  7.0
     Generated using ONCVPSP code by D. R. Hamann
     Using radial grid of  824 points,  5 beta functions with: 
                l(1) =   0
                l(2) =   0
                l(3) =   1
                l(4) =   1
                l(5) =   2

     atomic species   valence    mass     pseudopotential
        Li             3.00     6.94100     Li( 1.00)
        F              7.00    18.99840     F ( 1.00)

     48 Sym. Ops., with inversion, found


                                    s                        frac. trans.

      isym =  1     identity                                     

 cryst.   s( 1) = (     1          0          0      )
                  (     0          1          0      )
                  (     0          0          1      )

 cart.    s( 1) = (  1.0000000  0.0000000  0.0000000 )
                  (  0.0000000  1.0000000  0.0000000 )
                  (  0.0000000  0.0000000  1.0000000 )


      isym =  2     180 deg rotation - cart. axis [0,0,1]        

 cryst.   s( 2) = (     0          1         -1      )
                  (     1          0         -1      )
                  (     0          0         -1      )

 cart.    s( 2) = ( -1.0000000  0.0000000  0.0000000 )
                  (  0.0000000 -1.0000000  0.0000000 )
                  (  0.0000000  0.0000000  1.0000000 )


      isym =  3     180 deg rotation - cart. axis [0,1,0]        

 cryst.   s( 3) = (    -1          0          0      )
                  (    -1          0          1      )
                  (    -1          1          0      )

 cart.    s( 3) = ( -1.0000000  0.0000000  0.0000000 )
                  (  0.0000000  1.0000000  0.0000000 )
                  (  0.0000000  0.0000000 -1.0000000 )


      isym =  4     180 deg rotation - cart. axis [1,0,0]        

 cryst.   s( 4) = (     0         -1          1      )
                  (     0         -1          0      )
                  (     1         -1          0      )

 cart.    s( 4) = (  1.0000000  0.0000000  0.0000000 )
                  (  0.0000000 -1.0000000  0.0000000 )
                  (  0.0000000  0.0000000 -1.0000000 )


      isym =  5     180 deg rotation - cart. axis [1,1,0]        

 cryst.   s( 5) = (     0         -1          0      )
                  (    -1          0          0      )
                  (     0          0         -1      )

 cart.    s( 5) = (  0.0000000  1.0000000  0.0000000 )
                  (  1.0000000  0.0000000  0.0000000 )
                  (  0.0000000  0.0000000 -1.0000000 )


      isym =  6     180 deg rotation - cart. axis [1,-1,0]       

 cryst.   s( 6) = (    -1          0          1      )
                  (     0         -1          1      )
                  (     0          0          1      )

 cart.    s( 6) = (  0.0000000 -1.0000000  0.0000000 )
                  ( -1.0000000  0.0000000  0.0000000 )
                  (  0.0000000  0.0000000 -1.0000000 )


      isym =  7      90 deg rotation - cart. axis [0,0,-1]       

 cryst.   s( 7) = (     0          1          0      )
                  (     0          1         -1      )
                  (    -1          1          0      )

 cart.    s( 7) = (  0.0000000  1.0000000  0.0000000 )
                  ( -1.0000000  0.0000000  0.0000000 )
                  (  0.0000000  0.0000000  1.0000000 )


      isym =  8      90 deg rotation - cart. axis [0,0,1]        

 cryst.   s( 8) = (     1          0         -1      )
                  (     1          0          0      )
                  (     1         -1          0      )

 cart.    s( 8) = (  0.0000000 -1.0000000  0.0000000 )
                  (  1.0000000  0.0000000  0.0000000 )
                  (  0.0000000  0.0000000  1.0000000 )


      isym =  9     180 deg rotation - cart. axis [1,0,1]        

 cryst.   s( 9) = (    -1          0          0      )
                  (     0          0         -1      )
                  (     0         -1          0      )

 cart.    s( 9) = (  0.0000000  0.0000000  1.0000000 )
                  (  0.0000000 -1.0000000  0.0000000 )
                  (  1.0000000  0.0000000  0.0000000 )


      isym = 10     180 deg rotation - cart. axis [-1,0,1]       

 cryst.   s(10) = (     1          0          0      )
                  (     1         -1          0      )
                  (     1          0         -1      )

 cart.    s(10) = (  0.0000000  0.0000000 -1.0000000 )
                  (  0.0000000 -1.0000000  0.0000000 )
                  ( -1.0000000  0.0000000  0.0000000 )


      isym = 11      90 deg rotation - cart. axis [0,1,0]        

 cryst.   s(11) = (     0          1         -1      )
                  (    -1          1          0      )
                  (     0          1          0      )

 cart.    s(11) = (  0.0000000  0.0000000  1.0000000 )
                  (  0.0000000  1.0000000  0.0000000 )
                  ( -1.0000000  0.0000000  0.0000000 )


      isym = 12      90 deg rotation - cart. axis [0,-1,0]       

 cryst.   s(12) = (     0         -1          1      )
                  (     0          0          1      )
                  (    -1          0          1      )

 cart.    s(12) = (  0.0000000  0.0000000 -1.0000000 )
                  (  0.0000000  1.0000000  0.0000000 )
                  (  1.0000000  0.0000000  0.0000000 )


      isym = 13     180 deg rotation - cart. axis [0,1,1]        

 cryst.   s(13) = (    -1          1          0      )
                  (     0          1          0      )
                  (     0          1         -1      )

 cart.    s(13) = ( -1.0000000  0.0000000  0.0000000 )
                  (  0.0000000  0.0000000  1.0000000 )
                  (  0.0000000  1.0000000  0.0000000 )


      isym = 14     180 deg rotation - cart. axis [0,1,-1]       

 cryst.   s(14) = (     0          0         -1      )
                  (     0         -1          0      )
                  (    -1          0          0      )

 cart.    s(14) = ( -1.0000000  0.0000000  0.0000000 )
                  (  0.0000000  0.0000000 -1.0000000 )
                  (  0.0000000 -1.0000000  0.0000000 )


      isym = 15      90 deg rotation - cart. axis [-1,0,0]       

 cryst.   s(15) = (     0          0          1      )
                  (    -1          0          1      )
                  (     0         -1          1      )

 cart.    s(15) = (  1.0000000  0.0000000  0.0000000 )
                  (  0.0000000  0.0000000  1.0000000 )
                  (  0.0000000 -1.0000000  0.0000000 )


      isym = 16      90 deg rotation - cart. axis [1,0,0]        

 cryst.   s(16) = (     1         -1          0      )
                  (     1          0         -1      )
                  (     1          0          0      )

 cart.    s(16) = (  1.0000000  0.0000000  0.0000000 )
                  (  0.0000000  0.0000000 -1.0000000 )
                  (  0.0000000  1.0000000  0.0000000 )


      isym = 17     120 deg rotation - cart. axis [-1,-1,-1]     

 cryst.   s(17) = (    -1          0          1      )
                  (    -1          1          0      )
                  (    -1          0          0      )

 cart.    s(17) = (  0.0000000  1.0000000  0.0000000 )
                  (  0.0000000  0.0000000  1.0000000 )
                  (  1.0000000  0.0000000  0.0000000 )


      isym = 18     120 deg rotation - cart. axis [-1,1,1]       

 cryst.   s(18) = (     0          1          0      )
                  (     0          0          1      )
                  (     1          0          0      )

 cart.    s(18) = (  0.0000000 -1.0000000  0.0000000 )
                  (  0.0000000  0.0000000  1.0000000 )
                  ( -1.0000000  0.0000000  0.0000000 )


      isym = 19     120 deg rotation - cart. axis [1,1,-1]       

 cryst.   s(19) = (     1          0         -1      )
                  (     0          0         -1      )
                  (     0          1         -1      )

 cart.    s(19) = (  0.0000000  1.0000000  0.0000000 )
                  (  0.0000000  0.0000000 -1.0000000 )
                  ( -1.0000000  0.0000000  0.0000000 )


      isym = 20     120 deg rotation - cart. axis [1,-1,1]       

 cryst.   s(20) = (     0         -1          0      )
                  (     1         -1          0      )
                  (     0         -1          1      )

 cart.    s(20) = (  0.0000000 -1.0000000  0.0000000 )
                  (  0.0000000  0.0000000 -1.0000000 )
                  (  1.0000000  0.0000000  0.0000000 )


      isym = 21     120 deg rotation - cart. axis [1,1,1]        

 cryst.   s(21) = (     0          0         -1      )
                  (     0          1         -1      )
                  (     1          0         -1      )

 cart.    s(21) = (  0.0000000  0.0000000  1.0000000 )
                  (  1.0000000  0.0000000  0.0000000 )
                  (  0.0000000  1.0000000  0.0000000 )


      isym = 22     120 deg rotation - cart. axis [-1,1,-1]      

 cryst.   s(22) = (    -1          1          0      )
                  (    -1          0          0      )
                  (    -1          0          1      )

 cart.    s(22) = (  0.0000000  0.0000000  1.0000000 )
                  ( -1.0000000  0.0000000  0.0000000 )
                  (  0.0000000 -1.0000000  0.0000000 )


      isym = 23     120 deg rotation - cart. axis [1,-1,-1]      

 cryst.   s(23) = (     0          0          1      )
                  (     1          0          0      )
                  (     0          1          0      )

 cart.    s(23) = (  0.0000000  0.0000000 -1.0000000 )
                  ( -1.0000000  0.0000000  0.0000000 )
                  (  0.0000000  1.0000000  0.0000000 )


      isym = 24     120 deg rotation - cart. axis [-1,-1,1]      

 cryst.   s(24) = (     1         -1          0      )
                  (     0         -1          1      )
                  (     0         -1          0      )

 cart.    s(24) = (  0.0000000  0.0000000 -1.0000000 )
                  (  1.0000000  0.0000000  0.0000000 )
                  (  0.0000000 -1.0000000  0.0000000 )


      isym = 25     inversion                                    

 cryst.   s(25) = (    -1          0          0      )
                  (     0         -1          0      )
                  (     0          0         -1      )

 cart.    s(25) = ( -1.0000000  0.0000000  0.0000000 )
                  (  0.0000000 -1.0000000  0.0000000 )
                  (  0.0000000  0.0000000 -1.0000000 )


      isym = 26     inv. 180 deg rotation - cart. axis [0,0,1]   

 cryst.   s(26) = (     0         -1          1      )
                  (    -1          0          1      )
                  (     0          0          1      )

 cart.    s(26) = (  1.0000000  0.0000000  0.0000000 )
                  (  0.0000000  1.0000000  0.0000000 )
                  (  0.0000000  0.0000000 -1.0000000 )


      isym = 27     inv. 180 deg rotation - cart. axis [0,1,0]   

 cryst.   s(27) = (     1          0          0      )
                  (     1          0         -1      )
                  (     1         -1          0      )

 cart.    s(27) = (  1.0000000  0.0000000  0.0000000 )
                  (  0.0000000 -1.0000000  0.0000000 )
                  (  0.0000000  0.0000000  1.0000000 )


      isym = 28     inv. 180 deg rotation - cart. axis [1,0,0]   

 cryst.   s(28) = (     0          1         -1      )
                  (     0          1          0      )
                  (    -1          1          0      )

 cart.    s(28) = ( -1.0000000  0.0000000  0.0000000 )
                  (  0.0000000  1.0000000  0.0000000 )
                  (  0.0000000  0.0000000  1.0000000 )


      isym = 29     inv. 180 deg rotation - cart. axis [1,1,0]   

 cryst.   s(29) = (     0          1          0      )
                  (     1          0          0      )
                  (     0          0          1      )

 cart.    s(29) = (  0.0000000 -1.0000000  0.0000000 )
                  ( -1.0000000  0.0000000  0.0000000 )
                  (  0.0000000  0.0000000  1.0000000 )


      isym = 30     inv. 180 deg rotation - cart. axis [1,-1,0]  

 cryst.   s(30) = (     1          0         -1      )
                  (     0          1         -1      )
                  (     0          0         -1      )

 cart.    s(30) = (  0.0000000  1.0000000  0.0000000 )
                  (  1.0000000  0.0000000  0.0000000 )
                  (  0.0000000  0.0000000  1.0000000 )


      isym = 31     inv.  90 deg rotation - cart. axis [0,0,-1]  

 cryst.   s(31) = (     0         -1          0      )
                  (     0         -1          1      )
                  (     1         -1          0      )

 cart.    s(31) = (  0.0000000 -1.0000000  0.0000000 )
                  (  1.0000000  0.0000000  0.0000000 )
                  (  0.0000000  0.0000000 -1.0000000 )


      isym = 32     inv.  90 deg rotation - cart. axis [0,0,1]   

 cryst.   s(32) = (    -1          0          1      )
                  (    -1          0          0      )
                  (    -1          1          0      )

 cart.    s(32) = (  0.0000000  1.0000000  0.0000000 )
                  ( -1.0000000  0.0000000  0.0000000 )
                  (  0.0000000  0.0000000 -1.0000000 )


      isym = 33     inv. 180 deg rotation - cart. axis [1,0,1]   

 cryst.   s(33) = (     1          0          0      )
                  (     0          0          1      )
                  (     0          1          0      )

 cart.    s(33) = (  0.0000000  0.0000000 -1.0000000 )
                  (  0.0000000  1.0000000  0.0000000 )
                  ( -1.0000000  0.0000000  0.0000000 )


      isym = 34     inv. 180 deg rotation - cart. axis [-1,0,1]  

 cryst.   s(34) = (    -1          0          0      )
                  (    -1          1          0      )
                  (    -1          0          1      )

 cart.    s(34) = (  0.0000000  0.0000000  1.0000000 )
                  (  0.0000000  1.0000000  0.0000000 )
                  (  1.0000000  0.0000000  0.0000000 )


      isym = 35     inv.  90 deg rotation - cart. axis [0,1,0]   

 cryst.   s(35) = (     0         -1          1      )
                  (     1         -1          0      )
                  (     0         -1          0      )

 cart.    s(35) = (  0.0000000  0.0000000 -1.0000000 )
                  (  0.0000000 -1.0000000  0.0000000 )
                  (  1.0000000  0.0000000  0.0000000 )


      isym = 36     inv.  90 deg rotation - cart. axis [0,-1,0]  

 cryst.   s(36) = (     0          1         -1      )
                  (     0          0         -1      )
                  (     1          0         -1      )

 cart.    s(36) = (  0.0000000  0.0000000  1.0000000 )
                  (  0.0000000 -1.0000000  0.0000000 )
                  ( -1.0000000  0.0000000  0.0000000 )


      isym = 37     inv. 180 deg rotation - cart. axis [0,1,1]   

 cryst.   s(37) = (     1         -1          0      )
                  (     0         -1          0      )
                  (     0         -1          1      )

 cart.    s(37) = (  1.0000000  0.0000000  0.0000000 )
                  (  0.0000000  0.0000000 -1.0000000 )
                  (  0.0000000 -1.0000000  0.0000000 )


      isym = 38     inv. 180 deg rotation - cart. axis [0,1,-1]  

 cryst.   s(38) = (     0          0          1      )
                  (     0          1          0      )
                  (     1          0          0      )

 cart.    s(38) = (  1.0000000  0.0000000  0.0000000 )
                  (  0.0000000  0.0000000  1.0000000 )
                  (  0.0000000  1.0000000  0.0000000 )


      isym = 39     inv.  90 deg rotation - cart. axis [-1,0,0]  

 cryst.   s(39) = (     0          0         -1      )
                  (     1          0         -1      )
                  (     0          1         -1      )

 cart.    s(39) = ( -1.0000000  0.0000000  0.0000000 )
                  (  0.0000000  0.0000000 -1.0000000 )
                  (  0.0000000  1.0000000  0.0000000 )


      isym = 40     inv.  90 deg rotation - cart. axis [1,0,0]   

 cryst.   s(40) = (    -1          1          0      )
                  (    -1          0          1      )
                  (    -1          0          0      )

 cart.    s(40) = ( -1.0000000  0.0000000  0.0000000 )
                  (  0.0000000  0.0000000  1.0000000 )
                  (  0.0000000 -1.0000000  0.0000000 )


      isym = 41     inv. 120 deg rotation - cart. axis [-1,-1,-1]

 cryst.   s(41) = (     1          0         -1      )
                  (     1         -1          0      )
                  (     1          0          0      )

 cart.    s(41) = (  0.0000000 -1.0000000  0.0000000 )
                  (  0.0000000  0.0000000 -1.0000000 )
                  ( -1.0000000  0.0000000  0.0000000 )


      isym = 42     inv. 120 deg rotation - cart. axis [-1,1,1]  

 cryst.   s(42) = (     0         -1          0      )
                  (     0          0         -1      )
                  (    -1          0          0      )

 cart.    s(42) = (  0.0000000  1.0000000  0.0000000 )
                  (  0.0000000  0.0000000 -1.0000000 )
                  (  1.0000000  0.0000000  0.0000000 )


      isym = 43     inv. 120 deg rotation - cart. axis [1,1,-1]  

 cryst.   s(43) = (    -1          0          1      )
                  (     0          0          1      )
                  (     0         -1          1      )

 cart.    s(43) = (  0.0000000 -1.0000000  0.0000000 )
                  (  0.0000000  0.0000000  1.0000000 )
                  (  1.0000000  0.0000000  0.0000000 )


      isym = 44     inv. 120 deg rotation - cart. axis [1,-1,1]  

 cryst.   s(44) = (     0          1          0      )
                  (    -1          1          0      )
                  (     0          1         -1      )

 cart.    s(44) = (  0.0000000  1.0000000  0.0000000 )
                  (  0.0000000  0.0000000  1.0000000 )
                  ( -1.0000000  0.0000000  0.0000000 )


      isym = 45     inv. 120 deg rotation - cart. axis [1,1,1]   

 cryst.   s(45) = (     0          0          1      )
                  (     0         -1          1      )
                  (    -1          0          1      )

 cart.    s(45) = (  0.0000000  0.0000000 -1.0000000 )
                  ( -1.0000000  0.0000000  0.0000000 )
                  (  0.0000000 -1.0000000  0.0000000 )


      isym = 46     inv. 120 deg rotation - cart. axis [-1,1,-1] 

 cryst.   s(46) = (     1         -1          0      )
                  (     1          0          0      )
                  (     1          0         -1      )

 cart.    s(46) = (  0.0000000  0.0000000 -1.0000000 )
                  (  1.0000000  0.0000000  0.0000000 )
                  (  0.0000000  1.0000000  0.0000000 )


      isym = 47     inv. 120 deg rotation - cart. axis [1,-1,-1] 

 cryst.   s(47) = (     0          0         -1      )
                  (    -1          0          0      )
                  (     0         -1          0      )

 cart.    s(47) = (  0.0000000  0.0000000  1.0000000 )
                  (  1.0000000  0.0000000  0.0000000 )
                  (  0.0000000 -1.0000000  0.0000000 )


      isym = 48     inv. 120 deg rotation - cart. axis [-1,-1,1] 

 cryst.   s(48) = (    -1          1          0      )
                  (     0          1         -1      )
                  (     0          1          0      )

 cart.    s(48) = (  0.0000000  0.0000000  1.0000000 )
                  ( -1.0000000  0.0000000  0.0000000 )
                  (  0.0000000  1.0000000  0.0000000 )


     point group O_h (m-3m) 
     there are 10 classes
     the character table:

       E     8C3   3C2   6C4   6C2'  i     8S6   3s_h  6S4   6s_d 
A_1g   1.00  1.00  1.00  1.00  1.00  1.00  1.00  1.00  1.00  1.00
A_2g   1.00  1.00  1.00 -1.00 -1.00  1.00  1.00  1.00 -1.00 -1.00
E_g    2.00 -1.00  2.00  0.00  0.00  2.00 -1.00  2.00  0.00  0.00
T_1g   3.00  0.00 -1.00  1.00 -1.00  3.00  0.00 -1.00  1.00 -1.00
T_2g   3.00  0.00 -1.00 -1.00  1.00  3.00  0.00 -1.00 -1.00  1.00
A_1u   1.00  1.00  1.00  1.00  1.00 -1.00 -1.00 -1.00 -1.00 -1.00
A_2u   1.00  1.00  1.00 -1.00 -1.00 -1.00 -1.00 -1.00  1.00  1.00
E_u    2.00 -1.00  2.00  0.00  0.00 -2.00  1.00 -2.00  0.00  0.00
T_1u   3.00  0.00 -1.00  1.00 -1.00 -3.00  0.00  1.00 -1.00  1.00
T_2u   3.00  0.00 -1.00 -1.00  1.00 -3.00  0.00  1.00  1.00 -1.00

     the symmetry operations in each class and the name of the first element:

     E        1
          identity                                               
     8C3     17   19   20   18   24   21   22   23
          120 deg rotation - cart. axis [-1,-1,-1]               
     3C2      2    4    3
          180 deg rotation - cart. axis [0,0,1]                  
     6C4      7    8   15   16   12   11
           90 deg rotation - cart. axis [0,0,-1]                 
     6C2'     5    6   14   13   10    9
          180 deg rotation - cart. axis [1,1,0]                  
     i       25
          inversion                                              
     8S6     41   43   44   42   48   45   46   47
          inv. 120 deg rotation - cart. axis [-1,-1,-1]          
     3s_h    26   28   27
          inv. 180 deg rotation - cart. axis [0,0,1]             
     6S4     31   32   39   40   36   35
          inv.  90 deg rotation - cart. axis [0,0,-1]            
     6s_d    29   30   38   37   34   33
          inv. 180 deg rotation - cart. axis [1,1,0]             

   Cartesian axes

     site n.     atom                  positions (alat units)
         1           Li  tau(   1) = (   0.0000000   0.0000000   0.0000000  )
         2           F   tau(   2) = (   0.0000000  -0.5000000   0.0000000  )

   Crystallographic axes

     site n.     atom                  positions (cryst. coord.)
         1           Li  tau(   1) = (  0.0000000  0.0000000  0.0000000  )
         2           F   tau(   2) = (  0.5000000 -0.5000000 -0.5000000  )

     number of k points=    27
                       cart. coord. in units 2pi/alat
        k(    1) = (   0.0000000   0.0000000   0.0000000), wk =   0.0740741
        k(    2) = (  -0.3333333   0.3333333  -0.3333333), wk =   0.0740741
        k(    3) = (   0.3333333  -0.3333333  -0.3333333), wk =   0.0740741
        k(    4) = (   0.3333333   0.3333333   0.3333333), wk =   0.0740741
        k(    5) = (  -0.3333333  -0.3333333   0.3333333), wk =   0.0740741
        k(    6) = (   0.3333333  -0.3333333   0.3333333), wk =   0.0740741
        k(    7) = (  -0.3333333   0.3333333   0.3333333), wk =   0.0740741
        k(    8) = (  -0.3333333  -0.3333333  -0.3333333), wk =   0.0740741
        k(    9) = (   0.3333333   0.3333333  -0.3333333), wk =   0.0740741
        k(   10) = (   0.0000000   0.6666667   0.0000000), wk =   0.0740741
        k(   11) = (   0.0000000  -0.6666667   0.0000000), wk =   0.0740741
        k(   12) = (   0.6666667   0.0000000   0.0000000), wk =   0.0740741
        k(   13) = (  -0.6666667   0.0000000   0.0000000), wk =   0.0740741
        k(   14) = (   0.0000000   0.0000000   0.6666667), wk =   0.0740741
        k(   15) = (   0.0000000   0.0000000  -0.6666667), wk =   0.0740741
        k(   16) = (   0.6666667   0.0000000   0.6666667), wk =   0.0740741
        k(   17) = (  -0.6666667  -0.0000000   0.6666667), wk =   0.0740741
        k(   18) = (  -0.6666667   0.0000000  -0.6666667), wk =   0.0740741
        k(   19) = (   0.6666667   0.0000000  -0.6666667), wk =   0.0740741
        k(   20) = (   0.0000000   0.6666667  -0.6666667), wk =   0.0740741
        k(   21) = (  -0.0000000  -0.6666667  -0.6666667), wk =   0.0740741
        k(   22) = (   0.0000000   0.6666667   0.6666667), wk =   0.0740741
        k(   23) = (   0.0000000  -0.6666667   0.6666667), wk =   0.0740741
        k(   24) = (  -0.6666667   0.6666667  -0.0000000), wk =   0.0740741
        k(   25) = (  -0.6666667  -0.6666667   0.0000000), wk =   0.0740741
        k(   26) = (   0.6666667  -0.6666667   0.0000000), wk =   0.0740741
        k(   27) = (   0.6666667   0.6666667   0.0000000), wk =   0.0740741

                       cryst. coord.
        k(    1) = (   0.0000000   0.0000000   0.0000000), wk =   0.0740741
        k(    2) = (   0.0000000   0.0000000   0.3333333), wk =   0.0740741
        k(    3) = (  -0.3333333  -0.3333333  -0.3333333), wk =   0.0740741
        k(    4) = (   0.0000000   0.3333333   0.0000000), wk =   0.0740741
        k(    5) = (   0.3333333   0.0000000   0.0000000), wk =   0.0740741
        k(    6) = (   0.0000000   0.0000000  -0.3333333), wk =   0.0740741
        k(    7) = (   0.3333333   0.3333333   0.3333333), wk =   0.0740741
        k(    8) = (   0.0000000  -0.3333333   0.0000000), wk =   0.0740741
        k(    9) = (  -0.3333333   0.0000000   0.0000000), wk =   0.0740741
        k(   10) = (   0.0000000   0.3333333   0.3333333), wk =   0.0740741
        k(   11) = (   0.0000000  -0.3333333  -0.3333333), wk =   0.0740741
        k(   12) = (  -0.3333333   0.0000000  -0.3333333), wk =   0.0740741
        k(   13) = (   0.3333333   0.0000000   0.3333333), wk =   0.0740741
        k(   14) = (   0.3333333   0.3333333   0.0000000), wk =   0.0740741
        k(   15) = (  -0.3333333  -0.3333333   0.0000000), wk =   0.0740741
        k(   16) = (   0.0000000   0.3333333  -0.3333333), wk =   0.0740741
        k(   17) = (   0.6666667   0.3333333   0.3333333), wk =   0.0740741
        k(   18) = (   0.0000000  -0.3333333   0.3333333), wk =   0.0740741
        k(   19) = (  -0.6666667  -0.3333333  -0.3333333), wk =   0.0740741
        k(   20) = (  -0.3333333   0.0000000   0.3333333), wk =   0.0740741
        k(   21) = (  -0.3333333  -0.6666667  -0.3333333), wk =   0.0740741
        k(   22) = (   0.3333333   0.6666667   0.3333333), wk =   0.0740741
        k(   23) = (   0.3333333   0.0000000  -0.3333333), wk =   0.0740741
        k(   24) = (   0.3333333   0.3333333   0.6666667), wk =   0.0740741
        k(   25) = (   0.3333333  -0.3333333   0.0000000), wk =   0.0740741
        k(   26) = (  -0.3333333  -0.3333333  -0.6666667), wk =   0.0740741
        k(   27) = (  -0.3333333   0.3333333   0.0000000), wk =   0.0740741

     Dense  grid:    11017 G-vectors     FFT dimensions: (  32,  32,  32)

     Dynamical RAM for                 wfc:       0.11 MB

     Dynamical RAM for     wfc (w. buffer):       0.11 MB

     Dynamical RAM for           str. fact:       0.17 MB

     Dynamical RAM for           local pot:       0.00 MB

     Dynamical RAM for          nlocal pot:       0.22 MB

     Dynamical RAM for                qrad:       2.05 MB

     Dynamical RAM for          rho,v,vnew:       0.63 MB

     Dynamical RAM for           G-vectors:       0.36 MB

     Dynamical RAM for          h,s,v(r/c):       0.02 MB

     Dynamical RAM for          <psi|beta>:       0.00 MB

     Dynamical RAM for                 psi:       0.21 MB

     Dynamical RAM for                hpsi:       0.21 MB

     Dynamical RAM for      wfcinit/wfcrot:       0.21 MB

     Estimated static dynamical RAM per process >       4.41 MB

     Estimated max dynamical RAM per process >       4.85 MB

     Estimated total dynamical RAM >       9.70 MB

     The potential is recalculated from file :
     ./LiF.save/charge-density

     Starting wfcs are    6 randomized atomic wfcs +    4 random wfcs

     Band Structure Calculation
     Davidson diagonalization with overlap

     Computing kpt #:     1  of    27
     total cpu time spent up to now is        0.5 secs

     Computing kpt #:     2  of    27
     total cpu time spent up to now is        0.5 secs

     Computing kpt #:     3  of    27
     total cpu time spent up to now is        0.6 secs

     Computing kpt #:     4  of    27
     total cpu time spent up to now is        0.6 secs

     Computing kpt #:     5  of    27
     total cpu time spent up to now is        0.6 secs

     Computing kpt #:     6  of    27
     total cpu time spent up to now is        0.7 secs

     Computing kpt #:     7  of    27
     total cpu time spent up to now is        0.7 secs

     Computing kpt #:     8  of    27
     total cpu time spent up to now is        0.8 secs

     Computing kpt #:     9  of    27
     total cpu time spent up to now is        0.8 secs

     Computing kpt #:    10  of    27
     total cpu time spent up to now is        0.8 secs

     Computing kpt #:    11  of    27
     total cpu time spent up to now is        0.8 secs

     Computing kpt #:    12  of    27
     total cpu time spent up to now is        0.9 secs

     Computing kpt #:    13  of    27
     total cpu time spent up to now is        0.9 secs

     Computing kpt #:    14  of    27
     total cpu time spent up to now is        0.9 secs

     Computing kpt #:    15  of    27
     total cpu time spent up to now is        0.9 secs

     Computing kpt #:    16  of    27
     total cpu time spent up to now is        1.0 secs

     Computing kpt #:    17  of    27
     total cpu time spent up to now is        1.0 secs

     Computing kpt #:    18  of    27
     total cpu time spent up to now is        1.0 secs

     Computing kpt #:    19  of    27
     total cpu time spent up to now is        1.1 secs

     Computing kpt #:    20  of    27
     total cpu time spent up to now is        1.1 secs

     Computing kpt #:    21  of    27
     total cpu time spent up to now is        1.1 secs

     Computing kpt #:    22  of    27
     total cpu time spent up to now is        1.1 secs

     Computing kpt #:    23  of    27
     total cpu time spent up to now is        1.2 secs

     Computing kpt #:    24  of    27
     total cpu time spent up to now is        1.2 secs

     Computing kpt #:    25  of    27
     total cpu time spent up to now is        1.2 secs

     Computing kpt #:    26  of    27
     total cpu time spent up to now is        1.3 secs

     Computing kpt #:    27  of    27
     total cpu time spent up to now is        1.3 secs

     ethr =  1.00E-12,  avg # of iterations = 18.7

     total cpu time spent up to now is        1.3 secs

     End of band structure calculation

          k = 0.0000 0.0000 0.0000 (  1411 PWs)   bands (ev):

   -39.5367 -19.1944   0.2220   0.2220   0.2220   8.7709  23.2614  23.2614
    23.2614  23.8577

     occupation numbers 
     1.0000   1.0000   1.0000   1.0000   1.0000   0.0000   0.0000   0.0000
     0.0000   0.0000

          k =-0.3333 0.3333-0.3333 (  1380 PWs)   bands (ev):

   -39.4925 -18.8869  -1.6927   0.0566   0.0566  10.3568  16.5787  19.1513
    19.1513  27.5857

     occupation numbers 
     1.0000   1.0000   1.0000   1.0000   1.0000   0.0000   0.0000   0.0000
     0.0000   0.0000

          k = 0.3333-0.3333-0.3333 (  1380 PWs)   bands (ev):

   -39.4925 -18.8869  -1.6927   0.0566   0.0566  10.3568  16.5787  19.1513
    19.1513  27.5857

     occupation numbers 
     1.0000   1.0000   1.0000   1.0000   1.0000   0.0000   0.0000   0.0000
     0.0000   0.0000

          k = 0.3333 0.3333 0.3333 (  1380 PWs)   bands (ev):

   -39.4925 -18.8869  -1.6927   0.0566   0.0566  10.3568  16.5787  19.1513
    19.1513  27.5857

     occupation numbers 
     1.0000   1.0000   1.0000   1.0000   1.0000   0.0000   0.0000   0.0000
     0.0000   0.0000

          k =-0.3333-0.3333 0.3333 (  1380 PWs)   bands (ev):

   -39.4925 -18.8869  -1.6927   0.0566   0.0566  10.3568  16.5787  19.1513
    19.1513  27.5857

     occupation numbers 
     1.0000   1.0000   1.0000   1.0000   1.0000   0.0000   0.0000   0.0000
     0.0000   0.0000

          k = 0.3333-0.3333 0.3333 (  1380 PWs)   bands (ev):

   -39.4925 -18.8869  -1.6927   0.0566   0.0566  10.3568  16.5787  19.1513
    19.1513  27.5857

     occupation numbers 
     1.0000   1.0000   1.0000   1.0000   1.0000   0.0000   0.0000   0.0000
     0.0000   0.0000

          k =-0.3333 0.3333 0.3333 (  1380 PWs)   bands (ev):

   -39.4925 -18.8869  -1.6927   0.0566   0.0566  10.3568  16.5787  19.1513
    19.1513  27.5857

     occupation numbers 
     1.0000   1.0000   1.0000   1.0000   1.0000   0.0000   0.0000   0.0000
     0.0000   0.0000

          k =-0.3333-0.3333-0.3333 (  1380 PWs)   bands (ev):

   -39.4925 -18.8869  -1.6927   0.0566   0.0566  10.3568  16.5787  19.1513
    19.1513  27.5857

     occupation numbers 
     1.0000   1.0000   1.0000   1.0000   1.0000   0.0000   0.0000   0.0000
     0.0000   0.0000

          k = 0.3333 0.3333-0.3333 (  1380 PWs)   bands (ev):

   -39.4925 -18.8869  -1.6927   0.0566   0.0566  10.3568  16.5787  19.1513
    19.1513  27.5857

     occupation numbers 
     1.0000   1.0000   1.0000   1.0000   1.0000   0.0000   0.0000   0.0000
     0.0000   0.0000

          k = 0.0000 0.6667 0.0000 (  1379 PWs)   bands (ev):

   -39.4803 -18.7198  -1.9300  -0.5125  -0.5125  12.4207  17.1472  18.1682
    19.7207  19.7207

     occupation numbers 
     1.0000   1.0000   1.0000   1.0000   1.0000   0.0000   0.0000   0.0000
     0.0000   0.0000

          k = 0.0000-0.6667 0.0000 (  1379 PWs)   bands (ev):

   -39.4803 -18.7198  -1.9300  -0.5125  -0.5125  12.4207  17.1472  18.1682
    19.7207  19.7207

     occupation numbers 
     1.0000   1.0000   1.0000   1.0000   1.0000   0.0000   0.0000   0.0000
     0.0000   0.0000

          k = 0.6667 0.0000 0.0000 (  1379 PWs)   bands (ev):

   -39.4803 -18.7198  -1.9300  -0.5125  -0.5125  12.4207  17.1472  18.1682
    19.7207  19.7207

     occupation numbers 
     1.0000   1.0000   1.0000   1.0000   1.0000   0.0000   0.0000   0.0000
     0.0000   0.0000

          k =-0.6667 0.0000 0.0000 (  1379 PWs)   bands (ev):

   -39.4803 -18.7198  -1.9300  -0.5125  -0.5125  12.4207  17.1472  18.1682
    19.7207  19.7207

     occupation numbers 
     1.0000   1.0000   1.0000   1.0000   1.0000   0.0000   0.0000   0.0000
     0.0000   0.0000

          k = 0.0000 0.0000 0.6667 (  1379 PWs)   bands (ev):

   -39.4803 -18.7198  -1.9300  -0.5125  -0.5125  12.4207  17.1472  18.1682
    19.7207  19.7207

     occupation numbers 
     1.0000   1.0000   1.0000   1.0000   1.0000   0.0000   0.0000   0.0000
     0.0000   0.0000

          k = 0.0000 0.0000-0.6667 (  1379 PWs)   bands (ev):

   -39.4803 -18.7198  -1.9300  -0.5125  -0.5125  12.4207  17.1472  18.1682
    19.7207  19.7207

     occupation numbers 
     1.0000   1.0000   1.0000   1.0000   1.0000   0.0000   0.0000   0.0000
     0.0000   0.0000

          k = 0.6667 0.0000 0.6667 (  1382 PWs)   bands (ev):

   -39.4656 -18.6029  -1.8731  -1.5192  -0.3266  13.2281  14.5948  18.3353
    18.8855  24.7464

     occupation numbers 
     1.0000   1.0000   1.0000   1.0000   1.0000   0.0000   0.0000   0.0000
     0.0000   0.0000

          k =-0.6667-0.0000 0.6667 (  1382 PWs)   bands (ev):

   -39.4656 -18.6029  -1.8731  -1.5192  -0.3266  13.2281  14.5948  18.3353
    18.8855  24.7464

     occupation numbers 
     1.0000   1.0000   1.0000   1.0000   1.0000   0.0000   0.0000   0.0000
     0.0000   0.0000

          k =-0.6667 0.0000-0.6667 (  1382 PWs)   bands (ev):

   -39.4656 -18.6029  -1.8731  -1.5192  -0.3266  13.2281  14.5948  18.3353
    18.8855  24.7464

     occupation numbers 
     1.0000   1.0000   1.0000   1.0000   1.0000   0.0000   0.0000   0.0000
     0.0000   0.0000

          k = 0.6667 0.0000-0.6667 (  1382 PWs)   bands (ev):

   -39.4656 -18.6029  -1.8731  -1.5192  -0.3266  13.2281  14.5948  18.3353
    18.8855  24.7464

     occupation numbers 
     1.0000   1.0000   1.0000   1.0000   1.0000   0.0000   0.0000   0.0000
     0.0000   0.0000

          k = 0.0000 0.6667-0.6667 (  1382 PWs)   bands (ev):

   -39.4656 -18.6029  -1.8731  -1.5192  -0.3266  13.2281  14.5948  18.3353
    18.8855  24.7464

     occupation numbers 
     1.0000   1.0000   1.0000   1.0000   1.0000   0.0000   0.0000   0.0000
     0.0000   0.0000

          k =-0.0000-0.6667-0.6667 (  1382 PWs)   bands (ev):

   -39.4656 -18.6029  -1.8731  -1.5192  -0.3266  13.2281  14.5948  18.3353
    18.8855  24.7464

     occupation numbers 
     1.0000   1.0000   1.0000   1.0000   1.0000   0.0000   0.0000   0.0000
     0.0000   0.0000

          k = 0.0000 0.6667 0.6667 (  1382 PWs)   bands (ev):

   -39.4656 -18.6029  -1.8731  -1.5192  -0.3266  13.2281  14.5948  18.3353
    18.8855  24.7464

     occupation numbers 
     1.0000   1.0000   1.0000   1.0000   1.0000   0.0000   0.0000   0.0000
     0.0000   0.0000

          k = 0.0000-0.6667 0.6667 (  1382 PWs)   bands (ev):

   -39.4656 -18.6029  -1.8731  -1.5192  -0.3266  13.2281  14.5948  18.3353
    18.8855  24.7464

     occupation numbers 
     1.0000   1.0000   1.0000   1.0000   1.0000   0.0000   0.0000   0.0000
     0.0000   0.0000

          k =-0.6667 0.6667-0.0000 (  1382 PWs)   bands (ev):

   -39.4656 -18.6029  -1.8731  -1.5192  -0.3266  13.2281  14.5948  18.3353
    18.8855  24.7464

     occupation numbers 
     1.0000   1.0000   1.0000   1.0000   1.0000   0.0000   0.0000   0.0000
     0.0000   0.0000

          k =-0.6667-0.6667 0.0000 (  1382 PWs)   bands (ev):

   -39.4656 -18.6029  -1.8731  -1.5192  -0.3266  13.2281  14.5948  18.3353
    18.8855  24.7464

     occupation numbers 
     1.0000   1.0000   1.0000   1.0000   1.0000   0.0000   0.0000   0.0000
     0.0000   0.0000

          k = 0.6667-0.6667 0.0000 (  1382 PWs)   bands (ev):

   -39.4656 -18.6029  -1.8731  -1.5192  -0.3266  13.2281  14.5948  18.3353
    18.8855  24.7464

     occupation numbers 
     1.0000   1.0000   1.0000   1.0000   1.0000   0.0000   0.0000   0.0000
     0.0000   0.0000

          k = 0.6667 0.6667 0.0000 (  1382 PWs)   bands (ev):

   -39.4656 -18.6029  -1.8731  -1.5192  -0.3266  13.2281  14.5948  18.3353
    18.8855  24.7464

     occupation numbers 
     1.0000   1.0000   1.0000   1.0000   1.0000   0.0000   0.0000   0.0000
     0.0000   0.0000

     highest occupied, lowest unoccupied level (ev):     0.2220    8.7709

     Writing all to output data dir ./LiF.save/

     init_run     :      0.19s CPU      0.19s WALL (       1 calls)
     electrons    :      0.81s CPU      0.85s WALL (       1 calls)

     Called by init_run:
     wfcinit      :      0.00s CPU      0.00s WALL (       1 calls)
     wfcinit:atom :      0.00s CPU      0.00s WALL (      27 calls)
     wfcinit:wfcr :      0.06s CPU      0.07s WALL (      27 calls)
     potinit      :      0.00s CPU      0.00s WALL (       1 calls)
     hinit0       :      0.17s CPU      0.17s WALL (       1 calls)

     Called by electrons:
     c_bands      :      0.81s CPU      0.85s WALL (       1 calls)
     v_of_rho     :      0.00s CPU      0.00s WALL (       1 calls)
     v_h          :      0.00s CPU      0.00s WALL (       1 calls)
     v_xc         :      0.00s CPU      0.00s WALL (       1 calls)

     Called by c_bands:
     init_us_2    :      0.01s CPU      0.01s WALL (      27 calls)
     init_us_2:cp :      0.01s CPU      0.01s WALL (      27 calls)
     cegterg      :      0.71s CPU      0.74s WALL (      36 calls)

     Called by sum_band:

     Called by *egterg:
     cdiaghg      :      0.07s CPU      0.08s WALL (     532 calls)
     cegterg:over :      0.04s CPU      0.04s WALL (     505 calls)
     cegterg:upda :      0.02s CPU      0.02s WALL (     505 calls)
     cegterg:last :      0.03s CPU      0.03s WALL (     327 calls)
     h_psi        :      0.59s CPU      0.61s WALL (     568 calls)
     g_psi        :      0.01s CPU      0.01s WALL (     505 calls)

     Called by h_psi:
     h_psi:calbec :      0.03s CPU      0.03s WALL (     568 calls)
     vloc_psi     :      0.54s CPU      0.56s WALL (     568 calls)
     add_vuspsi   :      0.02s CPU      0.02s WALL (     568 calls)

     General routines
     calbec       :      0.03s CPU      0.03s WALL (     568 calls)
     fft          :      0.13s CPU      0.14s WALL (       4 calls)
     fftw         :      0.46s CPU      0.47s WALL (    7304 calls)
     davcio       :      0.00s CPU      0.00s WALL (      54 calls)

     Parallel routines

     PWSCF        :      1.14s CPU      2.53s WALL


   This run was terminated on:  13:46:46  30Jul2024            

=------------------------------------------------------------------------------=
   JOB DONE.
=------------------------------------------------------------------------------=
