File written on  1Aug2024 at 13:58:31 

calc_only_A  :  F

begin real_lattice
  -2.0382520   0.0000000   2.0382520
   0.0000000   2.0382520   2.0382520
  -2.0382520   2.0382520   0.0000000
end real_lattice

begin recip_lattice
  -1.5413171  -1.5413171   1.5413171
   1.5413171   1.5413171   1.5413171
  -1.5413171   1.5413171  -1.5413171
end recip_lattice

begin kpoints
  1000
   -0.00000000    0.00000000    0.00000000
   -0.00000000    0.00000000    0.10000000
   -0.10000000   -0.10000000   -0.10000000
   -0.00000000    0.10000000    0.00000000
    0.10000000    0.00000000    0.00000000
   -0.00000000    0.00000000   -0.10000000
    0.10000000    0.10000000    0.10000000
   -0.00000000   -0.10000000    0.00000000
   -0.10000000    0.00000000    0.00000000
   -0.00000000    0.00000000    0.20000000
   -0.20000000   -0.20000000   -0.20000000
   -0.00000000    0.20000000    0.00000000
    0.20000000    0.00000000    0.00000000
   -0.00000000    0.00000000   -0.20000000
    0.20000000    0.20000000    0.20000000
   -0.00000000   -0.20000000    0.00000000
   -0.20000000    0.00000000    0.00000000
   -0.00000000    0.00000000    0.30000000
   -0.30000000   -0.30000000   -0.30000000
   -0.00000000    0.30000000    0.00000000
    0.30000000    0.00000000    0.00000000
   -0.00000000    0.00000000   -0.30000000
    0.30000000    0.30000000    0.30000000
   -0.00000000   -0.30000000    0.00000000
   -0.30000000    0.00000000    0.00000000
   -0.00000000    0.00000000    0.40000000
   -0.40000000   -0.40000000   -0.40000000
   -0.00000000    0.40000000    0.00000000
    0.40000000    0.00000000    0.00000000
   -0.00000000    0.00000000   -0.40000000
    0.40000000    0.40000000    0.40000000
   -0.00000000   -0.40000000    0.00000000
   -0.40000000    0.00000000    0.00000000
   -0.00000000    0.00000000   -0.50000000
    0.50000000    0.50000000    0.50000000
   -0.00000000   -0.50000000    0.00000000
   -0.50000000    0.00000000    0.00000000
   -0.00000000    0.10000000    0.10000000
   -0.00000000   -0.10000000   -0.10000000
   -0.10000000    0.00000000   -0.10000000
    0.10000000    0.00000000    0.10000000
    0.10000000    0.10000000    0.00000000
   -0.10000000   -0.10000000    0.00000000
   -0.00000000    0.10000000    0.20000000
   -0.10000000   -0.20000000   -0.20000000
   -0.00000000    0.20000000    0.10000000
    0.10000000   -0.10000000   -0.10000000
   -0.10000000    0.00000000   -0.20000000
    0.20000000    0.10000000    0.20000000
    0.10000000   -0.10000000    0.10000000
   -0.20000000    0.00000000   -0.10000000
   -0.00000000   -0.20000000   -0.10000000
   -0.00000000   -0.10000000   -0.20000000
   -0.10000000    0.10000000    0.10000000
    0.10000000    0.20000000    0.20000000
    0.10000000    0.10000000   -0.10000000
   -0.20000000   -0.10000000    0.00000000
    0.20000000    0.20000000    0.10000000
   -0.10000000   -0.20000000    0.00000000
    0.20000000    0.10000000    0.00000000
    0.10000000    0.20000000    0.00000000
   -0.20000000   -0.20000000   -0.10000000
   -0.10000000   -0.10000000    0.10000000
   -0.20000000   -0.10000000   -0.20000000
    0.10000000    0.00000000    0.20000000
    0.20000000    0.00000000    0.10000000
   -0.10000000    0.10000000   -0.10000000
   -0.00000000    0.10000000    0.30000000
   -0.20000000   -0.30000000   -0.30000000
   -0.00000000    0.30000000    0.10000000
    0.20000000   -0.10000000   -0.10000000
   -0.10000000    0.00000000   -0.30000000
    0.30000000    0.20000000    0.30000000
    0.10000000   -0.20000000    0.10000000
   -0.30000000    0.00000000   -0.10000000
   -0.00000000   -0.30000000   -0.10000000
   -0.00000000   -0.10000000   -0.30000000
   -0.20000000    0.10000000    0.10000000
    0.20000000    0.30000000    0.30000000
    0.10000000    0.10000000   -0.20000000
   -0.30000000   -0.10000000    0.00000000
    0.30000000    0.30000000    0.20000000
   -0.10000000   -0.30000000    0.00000000
    0.30000000    0.10000000    0.00000000
    0.10000000    0.30000000    0.00000000
   -0.30000000   -0.30000000   -0.20000000
   -0.10000000   -0.10000000    0.20000000
   -0.30000000   -0.20000000   -0.30000000
    0.10000000    0.00000000    0.30000000
    0.30000000    0.00000000    0.10000000
   -0.10000000    0.20000000   -0.10000000
   -0.00000000    0.10000000    0.40000000
   -0.30000000   -0.40000000   -0.40000000
   -0.00000000    0.40000000    0.10000000
    0.30000000   -0.10000000   -0.10000000
   -0.10000000    0.00000000   -0.40000000
    0.40000000    0.30000000    0.40000000
    0.10000000   -0.30000000    0.10000000
   -0.40000000    0.00000000   -0.10000000
   -0.00000000   -0.40000000   -0.10000000
   -0.00000000   -0.10000000   -0.40000000
   -0.30000000    0.10000000    0.10000000
    0.30000000    0.40000000    0.40000000
    0.10000000    0.10000000   -0.30000000
   -0.40000000   -0.10000000    0.00000000
    0.40000000    0.40000000    0.30000000
   -0.10000000   -0.40000000    0.00000000
    0.40000000    0.10000000    0.00000000
    0.10000000    0.40000000    0.00000000
   -0.40000000   -0.40000000   -0.30000000
   -0.10000000   -0.10000000    0.30000000
   -0.40000000   -0.30000000   -0.40000000
    0.10000000    0.00000000    0.40000000
    0.40000000    0.00000000    0.10000000
   -0.10000000    0.30000000   -0.10000000
   -0.00000000    0.10000000   -0.50000000
    0.60000000    0.50000000    0.50000000
   -0.00000000   -0.50000000    0.10000000
   -0.60000000   -0.10000000   -0.10000000
   -0.10000000    0.00000000    0.50000000
   -0.50000000   -0.60000000   -0.50000000
    0.10000000    0.60000000    0.10000000
    0.50000000    0.00000000   -0.10000000
   -0.00000000    0.50000000   -0.10000000
   -0.00000000   -0.10000000    0.50000000
    0.60000000    0.10000000    0.10000000
   -0.60000000   -0.50000000   -0.50000000
    0.10000000    0.10000000    0.60000000
    0.50000000   -0.10000000    0.00000000
   -0.50000000   -0.50000000   -0.60000000
   -0.10000000    0.50000000    0.00000000
   -0.50000000    0.10000000    0.00000000
    0.10000000   -0.50000000    0.00000000
    0.50000000    0.50000000    0.60000000
   -0.10000000   -0.10000000   -0.60000000
    0.50000000    0.60000000    0.50000000
    0.10000000    0.00000000   -0.50000000
   -0.50000000    0.00000000    0.10000000
   -0.10000000   -0.60000000   -0.10000000
   -0.00000000    0.10000000   -0.40000000
    0.50000000    0.40000000    0.40000000
   -0.00000000   -0.40000000    0.10000000
   -0.50000000   -0.10000000   -0.10000000
   -0.10000000    0.00000000    0.40000000
   -0.40000000   -0.50000000   -0.40000000
    0.10000000    0.50000000    0.10000000
    0.40000000    0.00000000   -0.10000000
   -0.00000000    0.40000000   -0.10000000
   -0.00000000   -0.10000000    0.40000000
    0.50000000    0.10000000    0.10000000
   -0.50000000   -0.40000000   -0.40000000
    0.10000000    0.10000000    0.50000000
    0.40000000   -0.10000000    0.00000000
   -0.40000000   -0.40000000   -0.50000000
   -0.10000000    0.40000000    0.00000000
   -0.40000000    0.10000000    0.00000000
    0.10000000   -0.40000000    0.00000000
    0.40000000    0.40000000    0.50000000
   -0.10000000   -0.10000000   -0.50000000
    0.40000000    0.50000000    0.40000000
    0.10000000    0.00000000   -0.40000000
   -0.40000000    0.00000000    0.10000000
   -0.10000000   -0.50000000   -0.10000000
   -0.00000000    0.10000000   -0.30000000
    0.40000000    0.30000000    0.30000000
   -0.00000000   -0.30000000    0.10000000
   -0.40000000   -0.10000000   -0.10000000
   -0.10000000    0.00000000    0.30000000
   -0.30000000   -0.40000000   -0.30000000
    0.10000000    0.40000000    0.10000000
    0.30000000    0.00000000   -0.10000000
   -0.00000000    0.30000000   -0.10000000
   -0.00000000   -0.10000000    0.30000000
    0.40000000    0.10000000    0.10000000
   -0.40000000   -0.30000000   -0.30000000
    0.10000000    0.10000000    0.40000000
    0.30000000   -0.10000000    0.00000000
   -0.30000000   -0.30000000   -0.40000000
   -0.10000000    0.30000000    0.00000000
   -0.30000000    0.10000000    0.00000000
    0.10000000   -0.30000000    0.00000000
    0.30000000    0.30000000    0.40000000
   -0.10000000   -0.10000000   -0.40000000
    0.30000000    0.40000000    0.30000000
    0.10000000    0.00000000   -0.30000000
   -0.30000000    0.00000000    0.10000000
   -0.10000000   -0.40000000   -0.10000000
   -0.00000000    0.10000000   -0.20000000
    0.30000000    0.20000000    0.20000000
   -0.00000000   -0.20000000    0.10000000
   -0.30000000   -0.10000000   -0.10000000
   -0.10000000    0.00000000    0.20000000
   -0.20000000   -0.30000000   -0.20000000
    0.10000000    0.30000000    0.10000000
    0.20000000    0.00000000   -0.10000000
   -0.00000000    0.20000000   -0.10000000
   -0.00000000   -0.10000000    0.20000000
    0.30000000    0.10000000    0.10000000
   -0.30000000   -0.20000000   -0.20000000
    0.10000000    0.10000000    0.30000000
    0.20000000   -0.10000000    0.00000000
   -0.20000000   -0.20000000   -0.30000000
   -0.10000000    0.20000000    0.00000000
   -0.20000000    0.10000000    0.00000000
    0.10000000   -0.20000000    0.00000000
    0.20000000    0.20000000    0.30000000
   -0.10000000   -0.10000000   -0.30000000
    0.20000000    0.30000000    0.20000000
    0.10000000    0.00000000   -0.20000000
   -0.20000000    0.00000000    0.10000000
   -0.10000000   -0.30000000   -0.10000000
   -0.00000000    0.10000000   -0.10000000
    0.20000000    0.10000000    0.10000000
   -0.00000000   -0.10000000    0.10000000
   -0.20000000   -0.10000000   -0.10000000
   -0.10000000    0.00000000    0.10000000
   -0.10000000   -0.20000000   -0.10000000
    0.10000000    0.20000000    0.10000000
    0.10000000    0.00000000   -0.10000000
    0.10000000    0.10000000    0.20000000
    0.10000000   -0.10000000    0.00000000
   -0.10000000   -0.10000000   -0.20000000
   -0.10000000    0.10000000    0.00000000
   -0.00000000    0.20000000    0.20000000
   -0.00000000   -0.20000000   -0.20000000
   -0.20000000    0.00000000   -0.20000000
    0.20000000    0.00000000    0.20000000
    0.20000000    0.20000000    0.00000000
   -0.20000000   -0.20000000    0.00000000
   -0.00000000    0.20000000    0.30000000
   -0.10000000   -0.30000000   -0.30000000
   -0.00000000    0.30000000    0.20000000
    0.10000000   -0.20000000   -0.20000000
   -0.20000000    0.00000000   -0.30000000
    0.30000000    0.10000000    0.30000000
    0.20000000   -0.10000000    0.20000000
   -0.30000000    0.00000000   -0.20000000
   -0.00000000   -0.30000000   -0.20000000
   -0.00000000   -0.20000000   -0.30000000
   -0.10000000    0.20000000    0.20000000
    0.10000000    0.30000000    0.30000000
    0.20000000    0.20000000   -0.10000000
   -0.30000000   -0.20000000    0.00000000
    0.30000000    0.30000000    0.10000000
   -0.20000000   -0.30000000    0.00000000
    0.30000000    0.20000000    0.00000000
    0.20000000    0.30000000    0.00000000
   -0.30000000   -0.30000000   -0.10000000
   -0.20000000   -0.20000000    0.10000000
   -0.30000000   -0.10000000   -0.30000000
    0.20000000    0.00000000    0.30000000
    0.30000000    0.00000000    0.20000000
   -0.20000000    0.10000000   -0.20000000
   -0.00000000    0.20000000    0.40000000
   -0.20000000   -0.40000000   -0.40000000
   -0.00000000    0.40000000    0.20000000
    0.20000000   -0.20000000   -0.20000000
   -0.20000000    0.00000000   -0.40000000
    0.40000000    0.20000000    0.40000000
    0.20000000   -0.20000000    0.20000000
   -0.40000000    0.00000000   -0.20000000
   -0.00000000   -0.40000000   -0.20000000
   -0.00000000   -0.20000000   -0.40000000
   -0.20000000    0.20000000    0.20000000
    0.20000000    0.40000000    0.40000000
    0.20000000    0.20000000   -0.20000000
   -0.40000000   -0.20000000    0.00000000
    0.40000000    0.40000000    0.20000000
   -0.20000000   -0.40000000    0.00000000
    0.40000000    0.20000000    0.00000000
    0.20000000    0.40000000    0.00000000
   -0.40000000   -0.40000000   -0.20000000
   -0.20000000   -0.20000000    0.20000000
   -0.40000000   -0.20000000   -0.40000000
    0.20000000    0.00000000    0.40000000
    0.40000000    0.00000000    0.20000000
   -0.20000000    0.20000000   -0.20000000
   -0.00000000    0.20000000   -0.50000000
    0.70000000    0.50000000    0.50000000
   -0.00000000   -0.50000000    0.20000000
   -0.70000000   -0.20000000   -0.20000000
   -0.20000000    0.00000000    0.50000000
   -0.50000000   -0.70000000   -0.50000000
    0.20000000    0.70000000    0.20000000
    0.50000000    0.00000000   -0.20000000
   -0.00000000    0.50000000   -0.20000000
   -0.00000000   -0.20000000    0.50000000
    0.70000000    0.20000000    0.20000000
   -0.70000000   -0.50000000   -0.50000000
    0.20000000    0.20000000    0.70000000
    0.50000000   -0.20000000    0.00000000
   -0.50000000   -0.50000000   -0.70000000
   -0.20000000    0.50000000    0.00000000
   -0.50000000    0.20000000    0.00000000
    0.20000000   -0.50000000    0.00000000
    0.50000000    0.50000000    0.70000000
   -0.20000000   -0.20000000   -0.70000000
    0.50000000    0.70000000    0.50000000
    0.20000000    0.00000000   -0.50000000
   -0.50000000    0.00000000    0.20000000
   -0.20000000   -0.70000000   -0.20000000
   -0.00000000    0.20000000   -0.40000000
    0.60000000    0.40000000    0.40000000
   -0.00000000   -0.40000000    0.20000000
   -0.60000000   -0.20000000   -0.20000000
   -0.20000000    0.00000000    0.40000000
   -0.40000000   -0.60000000   -0.40000000
    0.20000000    0.60000000    0.20000000
    0.40000000    0.00000000   -0.20000000
   -0.00000000    0.40000000   -0.20000000
   -0.00000000   -0.20000000    0.40000000
    0.60000000    0.20000000    0.20000000
   -0.60000000   -0.40000000   -0.40000000
    0.20000000    0.20000000    0.60000000
    0.40000000   -0.20000000    0.00000000
   -0.40000000   -0.40000000   -0.60000000
   -0.20000000    0.40000000    0.00000000
   -0.40000000    0.20000000    0.00000000
    0.20000000   -0.40000000    0.00000000
    0.40000000    0.40000000    0.60000000
   -0.20000000   -0.20000000   -0.60000000
    0.40000000    0.60000000    0.40000000
    0.20000000    0.00000000   -0.40000000
   -0.40000000    0.00000000    0.20000000
   -0.20000000   -0.60000000   -0.20000000
   -0.00000000    0.20000000   -0.30000000
    0.50000000    0.30000000    0.30000000
   -0.00000000   -0.30000000    0.20000000
   -0.50000000   -0.20000000   -0.20000000
   -0.20000000    0.00000000    0.30000000
   -0.30000000   -0.50000000   -0.30000000
    0.20000000    0.50000000    0.20000000
    0.30000000    0.00000000   -0.20000000
   -0.00000000    0.30000000   -0.20000000
   -0.00000000   -0.20000000    0.30000000
    0.50000000    0.20000000    0.20000000
   -0.50000000   -0.30000000   -0.30000000
    0.20000000    0.20000000    0.50000000
    0.30000000   -0.20000000    0.00000000
   -0.30000000   -0.30000000   -0.50000000
   -0.20000000    0.30000000    0.00000000
   -0.30000000    0.20000000    0.00000000
    0.20000000   -0.30000000    0.00000000
    0.30000000    0.30000000    0.50000000
   -0.20000000   -0.20000000   -0.50000000
    0.30000000    0.50000000    0.30000000
    0.20000000    0.00000000   -0.30000000
   -0.30000000    0.00000000    0.20000000
   -0.20000000   -0.50000000   -0.20000000
   -0.00000000    0.20000000   -0.20000000
    0.40000000    0.20000000    0.20000000
   -0.00000000   -0.20000000    0.20000000
   -0.40000000   -0.20000000   -0.20000000
   -0.20000000    0.00000000    0.20000000
   -0.20000000   -0.40000000   -0.20000000
    0.20000000    0.40000000    0.20000000
    0.20000000    0.00000000   -0.20000000
    0.20000000    0.20000000    0.40000000
    0.20000000   -0.20000000    0.00000000
   -0.20000000   -0.20000000   -0.40000000
   -0.20000000    0.20000000    0.00000000
   -0.00000000    0.30000000    0.30000000
   -0.00000000   -0.30000000   -0.30000000
   -0.30000000    0.00000000   -0.30000000
    0.30000000    0.00000000    0.30000000
    0.30000000    0.30000000    0.00000000
   -0.30000000   -0.30000000    0.00000000
   -0.00000000    0.30000000    0.40000000
   -0.10000000   -0.40000000   -0.40000000
   -0.00000000    0.40000000    0.30000000
    0.10000000   -0.30000000   -0.30000000
   -0.30000000    0.00000000   -0.40000000
    0.40000000    0.10000000    0.40000000
    0.30000000   -0.10000000    0.30000000
   -0.40000000    0.00000000   -0.30000000
   -0.00000000   -0.40000000   -0.30000000
   -0.00000000   -0.30000000   -0.40000000
   -0.10000000    0.30000000    0.30000000
    0.10000000    0.40000000    0.40000000
    0.30000000    0.30000000   -0.10000000
   -0.40000000   -0.30000000    0.00000000
    0.40000000    0.40000000    0.10000000
   -0.30000000   -0.40000000    0.00000000
    0.40000000    0.30000000    0.00000000
    0.30000000    0.40000000    0.00000000
   -0.40000000   -0.40000000   -0.10000000
   -0.30000000   -0.30000000    0.10000000
   -0.40000000   -0.10000000   -0.40000000
    0.30000000    0.00000000    0.40000000
    0.40000000    0.00000000    0.30000000
   -0.30000000    0.10000000   -0.30000000
   -0.00000000    0.30000000   -0.50000000
    0.80000000    0.50000000    0.50000000
   -0.00000000   -0.50000000    0.30000000
   -0.80000000   -0.30000000   -0.30000000
   -0.30000000    0.00000000    0.50000000
   -0.50000000   -0.80000000   -0.50000000
    0.30000000    0.80000000    0.30000000
    0.50000000    0.00000000   -0.30000000
   -0.00000000    0.50000000   -0.30000000
   -0.00000000   -0.30000000    0.50000000
    0.80000000    0.30000000    0.30000000
   -0.80000000   -0.50000000   -0.50000000
    0.30000000    0.30000000    0.80000000
    0.50000000   -0.30000000    0.00000000
   -0.50000000   -0.50000000   -0.80000000
   -0.30000000    0.50000000    0.00000000
   -0.50000000    0.30000000    0.00000000
    0.30000000   -0.50000000    0.00000000
    0.50000000    0.50000000    0.80000000
   -0.30000000   -0.30000000   -0.80000000
    0.50000000    0.80000000    0.50000000
    0.30000000    0.00000000   -0.50000000
   -0.50000000    0.00000000    0.30000000
   -0.30000000   -0.80000000   -0.30000000
   -0.00000000    0.30000000   -0.40000000
    0.70000000    0.40000000    0.40000000
   -0.00000000   -0.40000000    0.30000000
   -0.70000000   -0.30000000   -0.30000000
   -0.30000000    0.00000000    0.40000000
   -0.40000000   -0.70000000   -0.40000000
    0.30000000    0.70000000    0.30000000
    0.40000000    0.00000000   -0.30000000
   -0.00000000    0.40000000   -0.30000000
   -0.00000000   -0.30000000    0.40000000
    0.70000000    0.30000000    0.30000000
   -0.70000000   -0.40000000   -0.40000000
    0.30000000    0.30000000    0.70000000
    0.40000000   -0.30000000    0.00000000
   -0.40000000   -0.40000000   -0.70000000
   -0.30000000    0.40000000    0.00000000
   -0.40000000    0.30000000    0.00000000
    0.30000000   -0.40000000    0.00000000
    0.40000000    0.40000000    0.70000000
   -0.30000000   -0.30000000   -0.70000000
    0.40000000    0.70000000    0.40000000
    0.30000000    0.00000000   -0.40000000
   -0.40000000    0.00000000    0.30000000
   -0.30000000   -0.70000000   -0.30000000
   -0.00000000    0.30000000   -0.30000000
    0.60000000    0.30000000    0.30000000
   -0.00000000   -0.30000000    0.30000000
   -0.60000000   -0.30000000   -0.30000000
   -0.30000000    0.00000000    0.30000000
   -0.30000000   -0.60000000   -0.30000000
    0.30000000    0.60000000    0.30000000
    0.30000000    0.00000000   -0.30000000
    0.30000000    0.30000000    0.60000000
    0.30000000   -0.30000000    0.00000000
   -0.30000000   -0.30000000   -0.60000000
   -0.30000000    0.30000000    0.00000000
   -0.00000000    0.40000000    0.40000000
   -0.00000000   -0.40000000   -0.40000000
   -0.40000000    0.00000000   -0.40000000
    0.40000000    0.00000000    0.40000000
    0.40000000    0.40000000    0.00000000
   -0.40000000   -0.40000000    0.00000000
   -0.00000000    0.40000000   -0.50000000
    0.90000000    0.50000000    0.50000000
   -0.00000000   -0.50000000    0.40000000
   -0.90000000   -0.40000000   -0.40000000
   -0.40000000    0.00000000    0.50000000
   -0.50000000   -0.90000000   -0.50000000
    0.40000000    0.90000000    0.40000000
    0.50000000    0.00000000   -0.40000000
   -0.00000000    0.50000000   -0.40000000
   -0.00000000   -0.40000000    0.50000000
    0.90000000    0.40000000    0.40000000
   -0.90000000   -0.50000000   -0.50000000
    0.40000000    0.40000000    0.90000000
    0.50000000   -0.40000000    0.00000000
   -0.50000000   -0.50000000   -0.90000000
   -0.40000000    0.50000000    0.00000000
   -0.50000000    0.40000000    0.00000000
    0.40000000   -0.50000000    0.00000000
    0.50000000    0.50000000    0.90000000
   -0.40000000   -0.40000000   -0.90000000
    0.50000000    0.90000000    0.50000000
    0.40000000    0.00000000   -0.50000000
   -0.50000000    0.00000000    0.40000000
   -0.40000000   -0.90000000   -0.40000000
   -0.00000000    0.40000000   -0.40000000
    0.80000000    0.40000000    0.40000000
   -0.00000000   -0.40000000    0.40000000
   -0.80000000   -0.40000000   -0.40000000
   -0.40000000    0.00000000    0.40000000
   -0.40000000   -0.80000000   -0.40000000
    0.40000000    0.80000000    0.40000000
    0.40000000    0.00000000   -0.40000000
    0.40000000    0.40000000    0.80000000
    0.40000000   -0.40000000    0.00000000
   -0.40000000   -0.40000000   -0.80000000
   -0.40000000    0.40000000    0.00000000
   -0.00000000   -0.50000000   -0.50000000
    0.50000000    0.00000000    0.50000000
   -0.50000000   -0.50000000    0.00000000
    0.10000000    0.20000000    0.30000000
   -0.10000000   -0.20000000   -0.30000000
   -0.10000000    0.20000000    0.10000000
    0.10000000   -0.20000000   -0.10000000
   -0.20000000   -0.10000000   -0.30000000
    0.20000000    0.10000000    0.30000000
    0.20000000   -0.10000000    0.10000000
   -0.20000000    0.10000000   -0.10000000
   -0.10000000   -0.30000000   -0.20000000
    0.10000000   -0.10000000   -0.20000000
   -0.10000000    0.10000000    0.20000000
    0.10000000    0.30000000    0.20000000
    0.10000000    0.20000000   -0.10000000
   -0.30000000   -0.20000000   -0.10000000
    0.30000000    0.20000000    0.10000000
   -0.10000000   -0.20000000    0.10000000
    0.20000000    0.10000000   -0.10000000
    0.20000000    0.30000000    0.10000000
   -0.20000000   -0.30000000   -0.10000000
   -0.20000000   -0.10000000    0.10000000
   -0.30000000   -0.10000000   -0.20000000
    0.10000000   -0.10000000    0.20000000
    0.30000000    0.10000000    0.20000000
   -0.10000000    0.10000000   -0.20000000
    0.10000000    0.20000000    0.40000000
   -0.20000000   -0.30000000   -0.40000000
   -0.10000000    0.30000000    0.10000000
    0.20000000   -0.20000000   -0.10000000
   -0.20000000   -0.10000000   -0.40000000
    0.30000000    0.20000000    0.40000000
    0.20000000   -0.20000000    0.10000000
   -0.30000000    0.10000000   -0.10000000
   -0.10000000   -0.40000000   -0.20000000
    0.10000000   -0.10000000   -0.30000000
   -0.20000000    0.10000000    0.20000000
    0.20000000    0.40000000    0.30000000
    0.10000000    0.20000000   -0.20000000
   -0.40000000   -0.20000000   -0.10000000
    0.40000000    0.30000000    0.20000000
   -0.10000000   -0.30000000    0.10000000
    0.30000000    0.10000000   -0.10000000
    0.20000000    0.40000000    0.10000000
   -0.30000000   -0.40000000   -0.20000000
   -0.20000000   -0.10000000    0.20000000
   -0.40000000   -0.20000000   -0.30000000
    0.10000000   -0.10000000    0.30000000
    0.40000000    0.10000000    0.20000000
   -0.10000000    0.20000000   -0.20000000
   -0.10000000   -0.20000000   -0.40000000
    0.20000000    0.30000000    0.40000000
    0.10000000   -0.30000000   -0.10000000
   -0.20000000    0.20000000    0.10000000
    0.20000000    0.10000000    0.40000000
   -0.30000000   -0.20000000   -0.40000000
   -0.20000000    0.20000000   -0.10000000
    0.30000000   -0.10000000    0.10000000
    0.10000000    0.40000000    0.20000000
   -0.10000000    0.10000000    0.30000000
    0.20000000   -0.10000000   -0.20000000
   -0.20000000   -0.40000000   -0.30000000
   -0.10000000   -0.20000000    0.20000000
    0.40000000    0.20000000    0.10000000
   -0.40000000   -0.30000000   -0.20000000
    0.10000000    0.30000000   -0.10000000
   -0.30000000   -0.10000000    0.10000000
   -0.20000000   -0.40000000   -0.10000000
    0.30000000    0.40000000    0.20000000
    0.20000000    0.10000000   -0.20000000
    0.40000000    0.20000000    0.30000000
   -0.10000000    0.10000000   -0.30000000
   -0.40000000   -0.10000000   -0.20000000
    0.10000000   -0.20000000    0.20000000
    0.10000000    0.20000000   -0.50000000
    0.70000000    0.60000000    0.50000000
   -0.10000000   -0.60000000    0.10000000
   -0.70000000   -0.20000000   -0.10000000
   -0.20000000   -0.10000000    0.50000000
   -0.60000000   -0.70000000   -0.50000000
    0.20000000    0.70000000    0.10000000
    0.60000000    0.10000000   -0.10000000
   -0.10000000    0.50000000   -0.20000000
    0.10000000   -0.10000000    0.60000000
    0.70000000    0.10000000    0.20000000
   -0.70000000   -0.50000000   -0.60000000
    0.10000000    0.20000000    0.70000000
    0.50000000   -0.20000000   -0.10000000
   -0.50000000   -0.60000000   -0.70000000
   -0.10000000    0.60000000    0.10000000
   -0.60000000    0.10000000   -0.10000000
    0.20000000   -0.50000000    0.10000000
    0.60000000    0.50000000    0.70000000
   -0.20000000   -0.10000000   -0.70000000
    0.50000000    0.70000000    0.60000000
    0.10000000   -0.10000000   -0.60000000
   -0.50000000    0.10000000    0.20000000
   -0.10000000   -0.70000000   -0.20000000
   -0.10000000   -0.20000000    0.50000000
   -0.70000000   -0.60000000   -0.50000000
    0.10000000    0.60000000   -0.10000000
    0.70000000    0.20000000    0.10000000
    0.20000000    0.10000000   -0.50000000
    0.60000000    0.70000000    0.50000000
   -0.20000000   -0.70000000   -0.10000000
   -0.60000000   -0.10000000    0.10000000
    0.10000000   -0.50000000    0.20000000
   -0.10000000    0.10000000   -0.60000000
   -0.70000000   -0.10000000   -0.20000000
    0.70000000    0.50000000    0.60000000
   -0.10000000   -0.20000000   -0.70000000
   -0.50000000    0.20000000    0.10000000
    0.50000000    0.60000000    0.70000000
    0.10000000   -0.60000000   -0.10000000
    0.60000000   -0.10000000    0.10000000
   -0.20000000    0.50000000   -0.10000000
   -0.60000000   -0.50000000   -0.70000000
    0.20000000    0.10000000    0.70000000
   -0.50000000   -0.70000000   -0.60000000
   -0.10000000    0.10000000    0.60000000
    0.50000000   -0.10000000   -0.20000000
    0.10000000    0.70000000    0.20000000
    0.10000000    0.20000000   -0.40000000
    0.60000000    0.50000000    0.40000000
   -0.10000000   -0.50000000    0.10000000
   -0.60000000   -0.20000000   -0.10000000
   -0.20000000   -0.10000000    0.40000000
   -0.50000000   -0.60000000   -0.40000000
    0.20000000    0.60000000    0.10000000
    0.50000000    0.10000000   -0.10000000
   -0.10000000    0.40000000   -0.20000000
    0.10000000   -0.10000000    0.50000000
    0.60000000    0.10000000    0.20000000
   -0.60000000   -0.40000000   -0.50000000
   -0.10000000   -0.20000000    0.40000000
   -0.60000000   -0.50000000   -0.40000000
    0.10000000    0.50000000   -0.10000000
    0.60000000    0.20000000    0.10000000
    0.20000000    0.10000000   -0.40000000
    0.50000000    0.60000000    0.40000000
   -0.20000000   -0.60000000   -0.10000000
   -0.50000000   -0.10000000    0.10000000
    0.10000000   -0.40000000    0.20000000
   -0.10000000    0.10000000   -0.50000000
   -0.60000000   -0.10000000   -0.20000000
    0.60000000    0.40000000    0.50000000
    0.10000000    0.30000000    0.40000000
   -0.10000000   -0.30000000   -0.40000000
   -0.10000000    0.30000000    0.20000000
    0.10000000   -0.30000000   -0.20000000
   -0.30000000   -0.10000000   -0.40000000
    0.30000000    0.10000000    0.40000000
    0.30000000   -0.10000000    0.20000000
   -0.30000000    0.10000000   -0.20000000
   -0.10000000   -0.40000000   -0.30000000
    0.10000000   -0.20000000   -0.30000000
   -0.10000000    0.20000000    0.30000000
    0.10000000    0.40000000    0.30000000
    0.20000000    0.30000000   -0.10000000
   -0.40000000   -0.30000000   -0.10000000
    0.40000000    0.30000000    0.10000000
   -0.20000000   -0.30000000    0.10000000
    0.30000000    0.20000000   -0.10000000
    0.30000000    0.40000000    0.10000000
   -0.30000000   -0.40000000   -0.10000000
   -0.30000000   -0.20000000    0.10000000
   -0.40000000   -0.10000000   -0.30000000
    0.20000000   -0.10000000    0.30000000
    0.40000000    0.10000000    0.30000000
   -0.20000000    0.10000000   -0.30000000
    0.10000000    0.30000000   -0.50000000
    0.80000000    0.60000000    0.50000000
   -0.10000000   -0.60000000    0.20000000
   -0.80000000   -0.30000000   -0.20000000
   -0.30000000   -0.10000000    0.50000000
   -0.60000000   -0.80000000   -0.50000000
    0.30000000    0.80000000    0.20000000
    0.60000000    0.10000000   -0.20000000
   -0.10000000    0.50000000   -0.30000000
    0.10000000   -0.20000000    0.60000000
    0.80000000    0.20000000    0.30000000
   -0.80000000   -0.50000000   -0.60000000
    0.20000000    0.30000000    0.80000000
    0.50000000   -0.30000000   -0.10000000
   -0.50000000   -0.60000000   -0.80000000
   -0.20000000    0.60000000    0.10000000
   -0.60000000    0.20000000   -0.10000000
    0.30000000   -0.50000000    0.10000000
    0.60000000    0.50000000    0.80000000
   -0.30000000   -0.20000000   -0.80000000
    0.50000000    0.80000000    0.60000000
    0.20000000   -0.10000000   -0.60000000
   -0.50000000    0.10000000    0.30000000
   -0.20000000   -0.80000000   -0.30000000
   -0.10000000   -0.30000000    0.50000000
   -0.80000000   -0.60000000   -0.50000000
    0.10000000    0.60000000   -0.20000000
    0.80000000    0.30000000    0.20000000
    0.30000000    0.10000000   -0.50000000
    0.60000000    0.80000000    0.50000000
   -0.30000000   -0.80000000   -0.20000000
   -0.60000000   -0.10000000    0.20000000
    0.10000000   -0.50000000    0.30000000
   -0.10000000    0.20000000   -0.60000000
   -0.80000000   -0.20000000   -0.30000000
    0.80000000    0.50000000    0.60000000
   -0.20000000   -0.30000000   -0.80000000
   -0.50000000    0.30000000    0.10000000
    0.50000000    0.60000000    0.80000000
    0.20000000   -0.60000000   -0.10000000
    0.60000000   -0.20000000    0.10000000
   -0.30000000    0.50000000   -0.10000000
   -0.60000000   -0.50000000   -0.80000000
    0.30000000    0.20000000    0.80000000
   -0.50000000   -0.80000000   -0.60000000
   -0.20000000    0.10000000    0.60000000
    0.50000000   -0.10000000   -0.30000000
    0.20000000    0.80000000    0.30000000
    0.10000000    0.30000000   -0.40000000
    0.70000000    0.50000000    0.40000000
   -0.10000000   -0.50000000    0.20000000
   -0.70000000   -0.30000000   -0.20000000
   -0.30000000   -0.10000000    0.40000000
   -0.50000000   -0.70000000   -0.40000000
    0.30000000    0.70000000    0.20000000
    0.50000000    0.10000000   -0.20000000
   -0.10000000    0.40000000   -0.30000000
    0.10000000   -0.20000000    0.50000000
    0.70000000    0.20000000    0.30000000
   -0.70000000   -0.40000000   -0.50000000
    0.20000000    0.30000000    0.70000000
    0.40000000   -0.30000000   -0.10000000
   -0.40000000   -0.50000000   -0.70000000
   -0.20000000    0.50000000    0.10000000
   -0.50000000    0.20000000   -0.10000000
    0.30000000   -0.40000000    0.10000000
    0.50000000    0.40000000    0.70000000
   -0.30000000   -0.20000000   -0.70000000
    0.40000000    0.70000000    0.50000000
    0.20000000   -0.10000000   -0.50000000
   -0.40000000    0.10000000    0.30000000
   -0.20000000   -0.70000000   -0.30000000
   -0.10000000   -0.30000000    0.40000000
   -0.70000000   -0.50000000   -0.40000000
    0.10000000    0.50000000   -0.20000000
    0.70000000    0.30000000    0.20000000
    0.30000000    0.10000000   -0.40000000
    0.50000000    0.70000000    0.40000000
   -0.30000000   -0.70000000   -0.20000000
   -0.50000000   -0.10000000    0.20000000
    0.10000000   -0.40000000    0.30000000
   -0.10000000    0.20000000   -0.50000000
   -0.70000000   -0.20000000   -0.30000000
    0.70000000    0.40000000    0.50000000
   -0.20000000   -0.30000000   -0.70000000
   -0.40000000    0.30000000    0.10000000
    0.40000000    0.50000000    0.70000000
    0.20000000   -0.50000000   -0.10000000
    0.50000000   -0.20000000    0.10000000
   -0.30000000    0.40000000   -0.10000000
   -0.50000000   -0.40000000   -0.70000000
    0.30000000    0.20000000    0.70000000
   -0.40000000   -0.70000000   -0.50000000
   -0.20000000    0.10000000    0.50000000
    0.40000000   -0.10000000   -0.30000000
    0.20000000    0.70000000    0.30000000
    0.10000000    0.30000000   -0.30000000
    0.60000000    0.40000000    0.30000000
   -0.10000000   -0.40000000    0.20000000
   -0.60000000   -0.30000000   -0.20000000
   -0.30000000   -0.10000000    0.30000000
   -0.40000000   -0.60000000   -0.30000000
    0.30000000    0.60000000    0.20000000
    0.40000000    0.10000000   -0.20000000
   -0.10000000    0.30000000   -0.30000000
    0.10000000   -0.20000000    0.40000000
    0.60000000    0.20000000    0.30000000
   -0.60000000   -0.30000000   -0.40000000
    0.20000000    0.30000000    0.60000000
    0.30000000   -0.30000000   -0.10000000
   -0.30000000   -0.40000000   -0.60000000
   -0.20000000    0.40000000    0.10000000
   -0.40000000    0.20000000   -0.10000000
    0.30000000   -0.30000000    0.10000000
    0.40000000    0.30000000    0.60000000
   -0.30000000   -0.20000000   -0.60000000
    0.30000000    0.60000000    0.40000000
    0.20000000   -0.10000000   -0.40000000
   -0.30000000    0.10000000    0.30000000
   -0.20000000   -0.60000000   -0.30000000
   -0.10000000   -0.30000000    0.30000000
   -0.60000000   -0.40000000   -0.30000000
    0.10000000    0.40000000   -0.20000000
    0.60000000    0.30000000    0.20000000
    0.30000000    0.10000000   -0.30000000
    0.40000000    0.60000000    0.30000000
   -0.30000000   -0.60000000   -0.20000000
   -0.40000000   -0.10000000    0.20000000
    0.10000000   -0.30000000    0.30000000
   -0.10000000    0.20000000   -0.40000000
   -0.60000000   -0.20000000   -0.30000000
    0.60000000    0.30000000    0.40000000
   -0.20000000   -0.30000000   -0.60000000
   -0.30000000    0.30000000    0.10000000
    0.30000000    0.40000000    0.60000000
    0.20000000   -0.40000000   -0.10000000
    0.40000000   -0.20000000    0.10000000
   -0.30000000    0.30000000   -0.10000000
   -0.40000000   -0.30000000   -0.60000000
    0.30000000    0.20000000    0.60000000
   -0.30000000   -0.60000000   -0.40000000
   -0.20000000    0.10000000    0.40000000
    0.30000000   -0.10000000   -0.30000000
    0.20000000    0.60000000    0.30000000
    0.10000000    0.30000000   -0.20000000
    0.50000000    0.30000000    0.20000000
   -0.10000000   -0.30000000    0.20000000
   -0.50000000   -0.30000000   -0.20000000
   -0.30000000   -0.10000000    0.20000000
   -0.30000000   -0.50000000   -0.20000000
    0.30000000    0.50000000    0.20000000
    0.30000000    0.10000000   -0.20000000
   -0.10000000    0.20000000   -0.30000000
    0.10000000   -0.20000000    0.30000000
    0.50000000    0.20000000    0.30000000
   -0.50000000   -0.20000000   -0.30000000
    0.20000000    0.30000000    0.50000000
    0.20000000   -0.30000000   -0.10000000
   -0.20000000   -0.30000000   -0.50000000
   -0.20000000    0.30000000    0.10000000
   -0.30000000    0.20000000   -0.10000000
    0.30000000   -0.20000000    0.10000000
    0.30000000    0.20000000    0.50000000
   -0.30000000   -0.20000000   -0.50000000
    0.20000000    0.50000000    0.30000000
    0.20000000   -0.10000000   -0.30000000
   -0.20000000    0.10000000    0.30000000
   -0.20000000   -0.50000000   -0.30000000
    0.10000000    0.40000000   -0.50000000
    0.90000000    0.60000000    0.50000000
   -0.10000000   -0.60000000    0.30000000
   -0.90000000   -0.40000000   -0.30000000
   -0.40000000   -0.10000000    0.50000000
   -0.60000000   -0.90000000   -0.50000000
    0.40000000    0.90000000    0.30000000
    0.60000000    0.10000000   -0.30000000
   -0.10000000    0.50000000   -0.40000000
    0.10000000   -0.30000000    0.60000000
    0.90000000    0.30000000    0.40000000
   -0.90000000   -0.50000000   -0.60000000
    0.30000000    0.40000000    0.90000000
    0.50000000   -0.40000000   -0.10000000
   -0.50000000   -0.60000000   -0.90000000
   -0.30000000    0.60000000    0.10000000
   -0.60000000    0.30000000   -0.10000000
    0.40000000   -0.50000000    0.10000000
    0.60000000    0.50000000    0.90000000
   -0.40000000   -0.30000000   -0.90000000
    0.50000000    0.90000000    0.60000000
    0.30000000   -0.10000000   -0.60000000
   -0.50000000    0.10000000    0.40000000
   -0.30000000   -0.90000000   -0.40000000
    0.10000000    0.40000000   -0.40000000
    0.80000000    0.50000000    0.40000000
   -0.10000000   -0.50000000    0.30000000
   -0.80000000   -0.40000000   -0.30000000
   -0.40000000   -0.10000000    0.40000000
   -0.50000000   -0.80000000   -0.40000000
    0.40000000    0.80000000    0.30000000
    0.50000000    0.10000000   -0.30000000
   -0.10000000    0.40000000   -0.40000000
    0.10000000   -0.30000000    0.50000000
    0.80000000    0.30000000    0.40000000
   -0.80000000   -0.40000000   -0.50000000
    0.30000000    0.40000000    0.80000000
    0.40000000   -0.40000000   -0.10000000
   -0.40000000   -0.50000000   -0.80000000
   -0.30000000    0.50000000    0.10000000
   -0.50000000    0.30000000   -0.10000000
    0.40000000   -0.40000000    0.10000000
    0.50000000    0.40000000    0.80000000
   -0.40000000   -0.30000000   -0.80000000
    0.40000000    0.80000000    0.50000000
    0.30000000   -0.10000000   -0.50000000
   -0.40000000    0.10000000    0.40000000
   -0.30000000   -0.80000000   -0.40000000
   -0.10000000   -0.40000000    0.40000000
   -0.80000000   -0.50000000   -0.40000000
    0.10000000    0.50000000   -0.30000000
    0.80000000    0.40000000    0.30000000
    0.40000000    0.10000000   -0.40000000
    0.50000000    0.80000000    0.40000000
   -0.40000000   -0.80000000   -0.30000000
   -0.50000000   -0.10000000    0.30000000
    0.10000000   -0.40000000    0.40000000
   -0.10000000    0.30000000   -0.50000000
   -0.80000000   -0.30000000   -0.40000000
    0.80000000    0.40000000    0.50000000
   -0.30000000   -0.40000000   -0.80000000
   -0.40000000    0.40000000    0.10000000
    0.40000000    0.50000000    0.80000000
    0.30000000   -0.50000000   -0.10000000
    0.50000000   -0.30000000    0.10000000
   -0.40000000    0.40000000   -0.10000000
   -0.50000000   -0.40000000   -0.80000000
    0.40000000    0.30000000    0.80000000
   -0.40000000   -0.80000000   -0.50000000
   -0.30000000    0.10000000    0.50000000
    0.40000000   -0.10000000   -0.40000000
    0.30000000    0.80000000    0.40000000
    0.10000000    0.40000000   -0.30000000
    0.70000000    0.40000000    0.30000000
   -0.10000000   -0.40000000    0.30000000
   -0.70000000   -0.40000000   -0.30000000
   -0.40000000   -0.10000000    0.30000000
   -0.40000000   -0.70000000   -0.30000000
    0.40000000    0.70000000    0.30000000
    0.40000000    0.10000000   -0.30000000
   -0.10000000    0.30000000   -0.40000000
    0.10000000   -0.30000000    0.40000000
    0.70000000    0.30000000    0.40000000
   -0.70000000   -0.30000000   -0.40000000
    0.30000000    0.40000000    0.70000000
    0.30000000   -0.40000000   -0.10000000
   -0.30000000   -0.40000000   -0.70000000
   -0.30000000    0.40000000    0.10000000
   -0.40000000    0.30000000   -0.10000000
    0.40000000   -0.30000000    0.10000000
    0.40000000    0.30000000    0.70000000
   -0.40000000   -0.30000000   -0.70000000
    0.30000000    0.70000000    0.40000000
    0.30000000   -0.10000000   -0.40000000
   -0.30000000    0.10000000    0.40000000
   -0.30000000   -0.70000000   -0.40000000
    0.10000000   -0.50000000   -0.40000000
   -0.10000000    0.50000000    0.40000000
    0.50000000   -0.10000000    0.40000000
   -0.50000000    0.10000000   -0.40000000
   -0.10000000    0.40000000    0.50000000
    0.10000000    0.60000000    0.50000000
   -0.60000000   -0.50000000   -0.10000000
   -0.40000000   -0.50000000    0.10000000
   -0.50000000   -0.60000000   -0.10000000
   -0.50000000   -0.40000000    0.10000000
    0.40000000   -0.10000000    0.50000000
   -0.40000000    0.10000000   -0.50000000
    0.20000000    0.40000000   -0.40000000
    0.80000000    0.60000000    0.40000000
   -0.20000000   -0.60000000    0.20000000
   -0.80000000   -0.40000000   -0.20000000
   -0.40000000   -0.20000000    0.40000000
   -0.60000000   -0.80000000   -0.40000000
    0.40000000    0.80000000    0.20000000
    0.60000000    0.20000000   -0.20000000
   -0.20000000    0.40000000   -0.40000000
    0.20000000   -0.20000000    0.60000000
    0.80000000    0.20000000    0.40000000
   -0.80000000   -0.40000000   -0.60000000
    0.20000000    0.40000000    0.80000000
    0.40000000   -0.40000000   -0.20000000
   -0.40000000   -0.60000000   -0.80000000
   -0.20000000    0.60000000    0.20000000
   -0.60000000    0.20000000   -0.20000000
    0.40000000   -0.40000000    0.20000000
    0.60000000    0.40000000    0.80000000
   -0.40000000   -0.20000000   -0.80000000
    0.40000000    0.80000000    0.60000000
    0.20000000   -0.20000000   -0.60000000
   -0.40000000    0.20000000    0.40000000
   -0.20000000   -0.80000000   -0.40000000
    0.20000000    0.40000000   -0.30000000
    0.70000000    0.50000000    0.30000000
   -0.20000000   -0.50000000    0.20000000
   -0.70000000   -0.40000000   -0.20000000
   -0.40000000   -0.20000000    0.30000000
   -0.50000000   -0.70000000   -0.30000000
    0.40000000    0.70000000    0.20000000
    0.50000000    0.20000000   -0.20000000
   -0.20000000    0.30000000   -0.40000000
    0.20000000   -0.20000000    0.50000000
    0.70000000    0.20000000    0.40000000
   -0.70000000   -0.30000000   -0.50000000
   -0.20000000   -0.40000000    0.30000000
   -0.70000000   -0.50000000   -0.30000000
    0.20000000    0.50000000   -0.20000000
    0.70000000    0.40000000    0.20000000
    0.40000000    0.20000000   -0.30000000
    0.50000000    0.70000000    0.30000000
   -0.40000000   -0.70000000   -0.20000000
   -0.50000000   -0.20000000    0.20000000
    0.20000000   -0.30000000    0.40000000
   -0.20000000    0.20000000   -0.50000000
   -0.70000000   -0.20000000   -0.40000000
    0.70000000    0.30000000    0.50000000
    0.20000000   -0.50000000   -0.30000000
   -0.20000000    0.50000000    0.30000000
    0.50000000   -0.20000000    0.30000000
   -0.50000000    0.20000000   -0.30000000
   -0.20000000    0.30000000    0.50000000
    0.20000000    0.70000000    0.50000000
   -0.70000000   -0.50000000   -0.20000000
   -0.30000000   -0.50000000    0.20000000
   -0.50000000   -0.70000000   -0.20000000
   -0.50000000   -0.30000000    0.20000000
    0.30000000   -0.20000000    0.50000000
   -0.30000000    0.20000000   -0.50000000
end kpoints

begin projections
     8
   0.00000    0.00000    0.00000     0  1  1
    0.0000000  0.0000000  1.0000000   1.0000000  0.0000000  0.0000000    1.00
   0.00000    0.00000    0.00000     1  1  1
    0.0000000  0.0000000  1.0000000   1.0000000  0.0000000  0.0000000    1.00
   0.00000    0.00000    0.00000     1  2  1
    0.0000000  0.0000000  1.0000000   1.0000000  0.0000000  0.0000000    1.00
   0.00000    0.00000    0.00000     1  3  1
    0.0000000  0.0000000  1.0000000   1.0000000  0.0000000  0.0000000    1.00
   0.50000   -0.50000   -0.50000     0  1  1
    0.0000000  0.0000000  1.0000000   1.0000000  0.0000000  0.0000000    1.00
   0.50000   -0.50000   -0.50000     1  1  1
    0.0000000  0.0000000  1.0000000   1.0000000  0.0000000  0.0000000    1.00
   0.50000   -0.50000   -0.50000     1  2  1
    0.0000000  0.0000000  1.0000000   1.0000000  0.0000000  0.0000000    1.00
   0.50000   -0.50000   -0.50000     1  3  1
    0.0000000  0.0000000  1.0000000   1.0000000  0.0000000  0.0000000    1.00
end projections

begin nnkpts
   8
     1     2      0   0   0
     1     3      0   0   0
     1     4      0   0   0
     1     5      0   0   0
     1     6      0   0   0
     1     7      0   0   0
     1     8      0   0   0
     1     9      0   0   0
     2     1      0   0   0
     2    10      0   0   0
     2    38      0   0   0
     2    41      0   0   0
     2    43      0   0   0
     2   214      0   0   0
     2   216      0   0   0
     2   220      0   0   0
     3     1      0   0   0
     3    11      0   0   0
     3    39      0   0   0
     3    40      0   0   0
     3    43      0   0   0
     3   215      0   0   0
     3   217      0   0   0
     3   222      0   0   0
     4     1      0   0   0
     4    12      0   0   0
     4    38      0   0   0
     4    40      0   0   0
     4    42      0   0   0
     4   212      0   0   0
     4   218      0   0   0
     4   223      0   0   0
     5     1      0   0   0
     5    13      0   0   0
     5    39      0   0   0
     5    41      0   0   0
     5    42      0   0   0
     5   213      0   0   0
     5   219      0   0   0
     5   221      0   0   0
     6     1      0   0   0
     6    14      0   0   0
     6    39      0   0   0
     6    40      0   0   0
     6    42      0   0   0
     6   212      0   0   0
     6   219      0   0   0
     6   222      0   0   0
     7     1      0   0   0
     7    15      0   0   0
     7    38      0   0   0
     7    41      0   0   0
     7    42      0   0   0
     7   213      0   0   0
     7   218      0   0   0
     7   220      0   0   0
     8     1      0   0   0
     8    16      0   0   0
     8    39      0   0   0
     8    41      0   0   0
     8    43      0   0   0
     8   214      0   0   0
     8   217      0   0   0
     8   221      0   0   0
     9     1      0   0   0
     9    17      0   0   0
     9    38      0   0   0
     9    40      0   0   0
     9    43      0   0   0
     9   215      0   0   0
     9   216      0   0   0
     9   223      0   0   0
    10     2      0   0   0
    10    18      0   0   0
    10    44      0   0   0
    10    63      0   0   0
    10    65      0   0   0
    10   192      0   0   0
    10   197      0   0   0
    10   200      0   0   0
    11     3      0   0   0
    11    19      0   0   0
    11    45      0   0   0
    11    62      0   0   0
    11    64      0   0   0
    11   193      0   0   0
    11   199      0   0   0
    11   202      0   0   0
    12     4      0   0   0
    12    20      0   0   0
    12    46      0   0   0
    12    61      0   0   0
    12    67      0   0   0
    12   194      0   0   0
    12   196      0   0   0
    12   203      0   0   0
    13     5      0   0   0
    13    21      0   0   0
    13    47      0   0   0
    13    60      0   0   0
    13    66      0   0   0
    13   195      0   0   0
    13   198      0   0   0
    13   201      0   0   0
    14     6      0   0   0
    14    22      0   0   0
    14    48      0   0   0
    14    53      0   0   0
    14    56      0   0   0
    14   188      0   0   0
    14   207      0   0   0
    14   209      0   0   0
    15     7      0   0   0
    15    23      0   0   0
    15    49      0   0   0
    15    55      0   0   0
    15    58      0   0   0
    15   189      0   0   0
    15   206      0   0   0
    15   208      0   0   0
    16     8      0   0   0
    16    24      0   0   0
    16    50      0   0   0
    16    52      0   0   0
    16    59      0   0   0
    16   190      0   0   0
    16   205      0   0   0
    16   211      0   0   0
    17     9      0   0   0
    17    25      0   0   0
    17    51      0   0   0
    17    54      0   0   0
    17    57      0   0   0
    17   191      0   0   0
    17   204      0   0   0
    17   210      0   0   0
    18    10      0   0   0
    18    26      0   0   0
    18    68      0   0   0
    18    87      0   0   0
    18    89      0   0   0
    18   168      0   0   0
    18   173      0   0   0
    18   176      0   0   0
    19    11      0   0   0
    19    27      0   0   0
    19    69      0   0   0
    19    86      0   0   0
    19    88      0   0   0
    19   169      0   0   0
    19   175      0   0   0
    19   178      0   0   0
    20    12      0   0   0
    20    28      0   0   0
    20    70      0   0   0
    20    85      0   0   0
    20    91      0   0   0
    20   170      0   0   0
    20   172      0   0   0
    20   179      0   0   0
    21    13      0   0   0
    21    29      0   0   0
    21    71      0   0   0
    21    84      0   0   0
    21    90      0   0   0
    21   171      0   0   0
    21   174      0   0   0
    21   177      0   0   0
    22    14      0   0   0
    22    30      0   0   0
    22    72      0   0   0
    22    77      0   0   0
    22    80      0   0   0
    22   164      0   0   0
    22   183      0   0   0
    22   185      0   0   0
    23    15      0   0   0
    23    31      0   0   0
    23    73      0   0   0
    23    79      0   0   0
    23    82      0   0   0
    23   165      0   0   0
    23   182      0   0   0
    23   184      0   0   0
    24    16      0   0   0
    24    32      0   0   0
    24    74      0   0   0
    24    76      0   0   0
    24    83      0   0   0
    24   166      0   0   0
    24   181      0   0   0
    24   187      0   0   0
    25    17      0   0   0
    25    33      0   0   0
    25    75      0   0   0
    25    78      0   0   0
    25    81      0   0   0
    25   167      0   0   0
    25   180      0   0   0
    25   186      0   0   0
    26    18      0   0   0
    26    92      0   0   0
    26   111      0   0   0
    26   113      0   0   0
    26   144      0   0   0
    26   149      0   0   0
    26   152      0   0   0
    26    34      0   0   1
    27    19      0   0   0
    27    93      0   0   0
    27   110      0   0   0
    27   112      0   0   0
    27   145      0   0   0
    27   151      0   0   0
    27   154      0   0   0
    27    35     -1  -1  -1
    28    20      0   0   0
    28    94      0   0   0
    28   109      0   0   0
    28   115      0   0   0
    28   146      0   0   0
    28   148      0   0   0
    28   155      0   0   0
    28    36      0   1   0
    29    21      0   0   0
    29    95      0   0   0
    29   108      0   0   0
    29   114      0   0   0
    29   147      0   0   0
    29   150      0   0   0
    29   153      0   0   0
    29    37      1   0   0
    30    22      0   0   0
    30    34      0   0   0
    30    96      0   0   0
    30   101      0   0   0
    30   104      0   0   0
    30   140      0   0   0
    30   159      0   0   0
    30   161      0   0   0
    31    23      0   0   0
    31    35      0   0   0
    31    97      0   0   0
    31   103      0   0   0
    31   106      0   0   0
    31   141      0   0   0
    31   158      0   0   0
    31   160      0   0   0
    32    24      0   0   0
    32    36      0   0   0
    32    98      0   0   0
    32   100      0   0   0
    32   107      0   0   0
    32   142      0   0   0
    32   157      0   0   0
    32   163      0   0   0
    33    25      0   0   0
    33    37      0   0   0
    33    99      0   0   0
    33   102      0   0   0
    33   105      0   0   0
    33   143      0   0   0
    33   156      0   0   0
    33   162      0   0   0
    34    30      0   0   0
    34   116      0   0   0
    34   135      0   0   0
    34   137      0   0   0
    34    26      0   0  -1
    34   120      0   0  -1
    34   125      0   0  -1
    34   128      0   0  -1
    35    31      0   0   0
    35   117      0   0   0
    35   134      0   0   0
    35   136      0   0   0
    35    27      1   1   1
    35   121      1   1   1
    35   127      1   1   1
    35   130      1   1   1
    36    32      0   0   0
    36   118      0   0   0
    36   133      0   0   0
    36   139      0   0   0
    36    28      0  -1   0
    36   122      0  -1   0
    36   124      0  -1   0
    36   131      0  -1   0
    37    33      0   0   0
    37   119      0   0   0
    37   132      0   0   0
    37   138      0   0   0
    37    29     -1   0   0
    37   123     -1   0   0
    37   126     -1   0   0
    37   129     -1   0   0
    38     2      0   0   0
    38     4      0   0   0
    38     7      0   0   0
    38     9      0   0   0
    38    44      0   0   0
    38    46      0   0   0
    38    54      0   0   0
    38    55      0   0   0
    39     3      0   0   0
    39     5      0   0   0
    39     6      0   0   0
    39     8      0   0   0
    39    45      0   0   0
    39    47      0   0   0
    39    52      0   0   0
    39    53      0   0   0
    40     3      0   0   0
    40     4      0   0   0
    40     6      0   0   0
    40     9      0   0   0
    40    48      0   0   0
    40    51      0   0   0
    40    64      0   0   0
    40    67      0   0   0
    41     2      0   0   0
    41     5      0   0   0
    41     7      0   0   0
    41     8      0   0   0
    41    49      0   0   0
    41    50      0   0   0
    41    65      0   0   0
    41    66      0   0   0
    42     4      0   0   0
    42     5      0   0   0
    42     6      0   0   0
    42     7      0   0   0
    42    56      0   0   0
    42    58      0   0   0
    42    60      0   0   0
    42    61      0   0   0
    43     2      0   0   0
    43     3      0   0   0
    43     8      0   0   0
    43     9      0   0   0
    43    57      0   0   0
    43    59      0   0   0
    43    62      0   0   0
    43    63      0   0   0
    44    10      0   0   0
    44    38      0   0   0
    44    68      0   0   0
    44   216      0   0   0
    44   220      0   0   0
    44   224      0   0   0
    44   497      0   0   0
    44   507      0   0   0
    45    11      0   0   0
    45    39      0   0   0
    45    69      0   0   0
    45   217      0   0   0
    45   222      0   0   0
    45   225      0   0   0
    45   498      0   0   0
    45   505      0   0   0
    46    12      0   0   0
    46    38      0   0   0
    46    70      0   0   0
    46   218      0   0   0
    46   223      0   0   0
    46   224      0   0   0
    46   499      0   0   0
    46   508      0   0   0
    47    13      0   0   0
    47    39      0   0   0
    47    71      0   0   0
    47   219      0   0   0
    47   221      0   0   0
    47   225      0   0   0
    47   500      0   0   0
    47   506      0   0   0
    48    14      0   0   0
    48    40      0   0   0
    48    72      0   0   0
    48   212      0   0   0
    48   222      0   0   0
    48   226      0   0   0
    48   501      0   0   0
    48   520      0   0   0
    49    15      0   0   0
    49    41      0   0   0
    49    73      0   0   0
    49   213      0   0   0
    49   220      0   0   0
    49   227      0   0   0
    49   502      0   0   0
    49   519      0   0   0
    50    16      0   0   0
    50    41      0   0   0
    50    74      0   0   0
    50   214      0   0   0
    50   221      0   0   0
    50   227      0   0   0
    50   503      0   0   0
    50   518      0   0   0
    51    17      0   0   0
    51    40      0   0   0
    51    75      0   0   0
    51   215      0   0   0
    51   223      0   0   0
    51   226      0   0   0
    51   504      0   0   0
    51   517      0   0   0
    52    16      0   0   0
    52    39      0   0   0
    52    76      0   0   0
    52   217      0   0   0
    52   221      0   0   0
    52   225      0   0   0
    52   500      0   0   0
    52   505      0   0   0
    53    14      0   0   0
    53    39      0   0   0
    53    77      0   0   0
    53   219      0   0   0
    53   222      0   0   0
    53   225      0   0   0
    53   498      0   0   0
    53   506      0   0   0
    54    17      0   0   0
    54    38      0   0   0
    54    78      0   0   0
    54   216      0   0   0
    54   223      0   0   0
    54   224      0   0   0
    54   499      0   0   0
    54   507      0   0   0
    55    15      0   0   0
    55    38      0   0   0
    55    79      0   0   0
    55   218      0   0   0
    55   220      0   0   0
    55   224      0   0   0
    55   497      0   0   0
    55   508      0   0   0
    56    14      0   0   0
    56    42      0   0   0
    56    80      0   0   0
    56   212      0   0   0
    56   219      0   0   0
    56   228      0   0   0
    56   509      0   0   0
    56   513      0   0   0
    57    17      0   0   0
    57    43      0   0   0
    57    81      0   0   0
    57   215      0   0   0
    57   216      0   0   0
    57   229      0   0   0
    57   510      0   0   0
    57   516      0   0   0
    58    15      0   0   0
    58    42      0   0   0
    58    82      0   0   0
    58   213      0   0   0
    58   218      0   0   0
    58   228      0   0   0
    58   511      0   0   0
    58   514      0   0   0
    59    16      0   0   0
    59    43      0   0   0
    59    83      0   0   0
    59   214      0   0   0
    59   217      0   0   0
    59   229      0   0   0
    59   512      0   0   0
    59   515      0   0   0
    60    13      0   0   0
    60    42      0   0   0
    60    84      0   0   0
    60   213      0   0   0
    60   219      0   0   0
    60   228      0   0   0
    60   511      0   0   0
    60   513      0   0   0
    61    12      0   0   0
    61    42      0   0   0
    61    85      0   0   0
    61   212      0   0   0
    61   218      0   0   0
    61   228      0   0   0
    61   509      0   0   0
    61   514      0   0   0
    62    11      0   0   0
    62    43      0   0   0
    62    86      0   0   0
    62   215      0   0   0
    62   217      0   0   0
    62   229      0   0   0
    62   510      0   0   0
    62   515      0   0   0
    63    10      0   0   0
    63    43      0   0   0
    63    87      0   0   0
    63   214      0   0   0
    63   216      0   0   0
    63   229      0   0   0
    63   512      0   0   0
    63   516      0   0   0
    64    11      0   0   0
    64    40      0   0   0
    64    88      0   0   0
    64   215      0   0   0
    64   222      0   0   0
    64   226      0   0   0
    64   501      0   0   0
    64   517      0   0   0
    65    10      0   0   0
    65    41      0   0   0
    65    89      0   0   0
    65   214      0   0   0
    65   220      0   0   0
    65   227      0   0   0
    65   502      0   0   0
    65   518      0   0   0
    66    13      0   0   0
    66    41      0   0   0
    66    90      0   0   0
    66   213      0   0   0
    66   221      0   0   0
    66   227      0   0   0
    66   503      0   0   0
    66   519      0   0   0
    67    12      0   0   0
    67    40      0   0   0
    67    91      0   0   0
    67   212      0   0   0
    67   223      0   0   0
    67   226      0   0   0
    67   504      0   0   0
    67   520      0   0   0
    68    18      0   0   0
    68    44      0   0   0
    68    92      0   0   0
    68   192      0   0   0
    68   200      0   0   0
    68   230      0   0   0
    68   521      0   0   0
    68   554      0   0   0
    69    19      0   0   0
    69    45      0   0   0
    69    93      0   0   0
    69   193      0   0   0
    69   202      0   0   0
    69   231      0   0   0
    69   522      0   0   0
    69   556      0   0   0
    70    20      0   0   0
    70    46      0   0   0
    70    94      0   0   0
    70   194      0   0   0
    70   203      0   0   0
    70   232      0   0   0
    70   523      0   0   0
    70   553      0   0   0
    71    21      0   0   0
    71    47      0   0   0
    71    95      0   0   0
    71   195      0   0   0
    71   201      0   0   0
    71   233      0   0   0
    71   524      0   0   0
    71   555      0   0   0
    72    22      0   0   0
    72    48      0   0   0
    72    96      0   0   0
    72   188      0   0   0
    72   207      0   0   0
    72   234      0   0   0
    72   525      0   0   0
    72   566      0   0   0
    73    23      0   0   0
    73    49      0   0   0
    73    97      0   0   0
    73   189      0   0   0
    73   206      0   0   0
    73   235      0   0   0
    73   526      0   0   0
    73   565      0   0   0
    74    24      0   0   0
    74    50      0   0   0
    74    98      0   0   0
    74   190      0   0   0
    74   205      0   0   0
    74   236      0   0   0
    74   527      0   0   0
    74   568      0   0   0
    75    25      0   0   0
    75    51      0   0   0
    75    99      0   0   0
    75   191      0   0   0
    75   204      0   0   0
    75   237      0   0   0
    75   528      0   0   0
    75   567      0   0   0
    76    24      0   0   0
    76    52      0   0   0
    76   100      0   0   0
    76   205      0   0   0
    76   211      0   0   0
    76   238      0   0   0
    76   529      0   0   0
    76   547      0   0   0
    77    22      0   0   0
    77    53      0   0   0
    77   101      0   0   0
    77   207      0   0   0
    77   209      0   0   0
    77   239      0   0   0
    77   530      0   0   0
    77   545      0   0   0
    78    25      0   0   0
    78    54      0   0   0
    78   102      0   0   0
    78   204      0   0   0
    78   210      0   0   0
    78   240      0   0   0
    78   531      0   0   0
    78   548      0   0   0
    79    23      0   0   0
    79    55      0   0   0
    79   103      0   0   0
    79   206      0   0   0
    79   208      0   0   0
    79   241      0   0   0
    79   532      0   0   0
    79   546      0   0   0
    80    22      0   0   0
    80    56      0   0   0
    80   104      0   0   0
    80   188      0   0   0
    80   209      0   0   0
    80   242      0   0   0
    80   533      0   0   0
    80   564      0   0   0
    81    25      0   0   0
    81    57      0   0   0
    81   105      0   0   0
    81   191      0   0   0
    81   210      0   0   0
    81   243      0   0   0
    81   534      0   0   0
    81   561      0   0   0
    82    23      0   0   0
    82    58      0   0   0
    82   106      0   0   0
    82   189      0   0   0
    82   208      0   0   0
    82   244      0   0   0
    82   535      0   0   0
    82   563      0   0   0
    83    24      0   0   0
    83    59      0   0   0
    83   107      0   0   0
    83   190      0   0   0
    83   211      0   0   0
    83   245      0   0   0
    83   536      0   0   0
    83   562      0   0   0
    84    21      0   0   0
    84    60      0   0   0
    84   108      0   0   0
    84   195      0   0   0
    84   198      0   0   0
    84   246      0   0   0
    84   537      0   0   0
    84   558      0   0   0
    85    20      0   0   0
    85    61      0   0   0
    85   109      0   0   0
    85   194      0   0   0
    85   196      0   0   0
    85   247      0   0   0
    85   538      0   0   0
    85   560      0   0   0
    86    19      0   0   0
    86    62      0   0   0
    86   110      0   0   0
    86   193      0   0   0
    86   199      0   0   0
    86   248      0   0   0
    86   539      0   0   0
    86   559      0   0   0
    87    18      0   0   0
    87    63      0   0   0
    87   111      0   0   0
    87   192      0   0   0
    87   197      0   0   0
    87   249      0   0   0
    87   540      0   0   0
    87   557      0   0   0
    88    19      0   0   0
    88    64      0   0   0
    88   112      0   0   0
    88   199      0   0   0
    88   202      0   0   0
    88   250      0   0   0
    88   541      0   0   0
    88   550      0   0   0
    89    18      0   0   0
    89    65      0   0   0
    89   113      0   0   0
    89   197      0   0   0
    89   200      0   0   0
    89   251      0   0   0
    89   542      0   0   0
    89   549      0   0   0
    90    21      0   0   0
    90    66      0   0   0
    90   114      0   0   0
    90   198      0   0   0
    90   201      0   0   0
    90   252      0   0   0
    90   543      0   0   0
    90   552      0   0   0
    91    20      0   0   0
    91    67      0   0   0
    91   115      0   0   0
    91   196      0   0   0
    91   203      0   0   0
    91   253      0   0   0
    91   544      0   0   0
    91   551      0   0   0
    92    26      0   0   0
    92    68      0   0   0
    92   168      0   0   0
    92   176      0   0   0
    92   254      0   0   0
    92   116      0   0   1
    92   569      0   0   1
    92   602      0   0   1
    93    27      0   0   0
    93    69      0   0   0
    93   169      0   0   0
    93   178      0   0   0
    93   255      0   0   0
    93   117     -1  -1  -1
    93   570     -1  -1  -1
    93   604     -1  -1  -1
    94    28      0   0   0
    94    70      0   0   0
    94   170      0   0   0
    94   179      0   0   0
    94   256      0   0   0
    94   118      0   1   0
    94   571      0   1   0
    94   601      0   1   0
    95    29      0   0   0
    95    71      0   0   0
    95   171      0   0   0
    95   177      0   0   0
    95   257      0   0   0
    95   119      1   0   0
    95   572      1   0   0
    95   603      1   0   0
    96    30      0   0   0
    96    72      0   0   0
    96   164      0   0   0
    96   183      0   0   0
    96   258      0   0   0
    96   120      0   0  -1
    96   573      0   0  -1
    96   614      0   0  -1
    97    31      0   0   0
    97    73      0   0   0
    97   165      0   0   0
    97   182      0   0   0
    97   259      0   0   0
    97   121      1   1   1
    97   574      1   1   1
    97   613      1   1   1
    98    32      0   0   0
    98    74      0   0   0
    98   166      0   0   0
    98   181      0   0   0
    98   260      0   0   0
    98   122      0  -1   0
    98   575      0  -1   0
    98   616      0  -1   0
    99    33      0   0   0
    99    75      0   0   0
    99   167      0   0   0
    99   180      0   0   0
    99   261      0   0   0
    99   123     -1   0   0
    99   576     -1   0   0
    99   615     -1   0   0
   100    32      0   0   0
   100    76      0   0   0
   100   181      0   0   0
   100   187      0   0   0
   100   262      0   0   0
   100   124      0  -1   0
   100   577      0  -1   0
   100   595      0  -1   0
   101    30      0   0   0
   101    77      0   0   0
   101   183      0   0   0
   101   185      0   0   0
   101   263      0   0   0
   101   125      0   0  -1
   101   578      0   0  -1
   101   593      0   0  -1
   102    33      0   0   0
   102    78      0   0   0
   102   180      0   0   0
   102   186      0   0   0
   102   264      0   0   0
   102   126     -1   0   0
   102   579     -1   0   0
   102   596     -1   0   0
   103    31      0   0   0
   103    79      0   0   0
   103   182      0   0   0
   103   184      0   0   0
   103   265      0   0   0
   103   127      1   1   1
   103   580      1   1   1
   103   594      1   1   1
   104    30      0   0   0
   104    80      0   0   0
   104   164      0   0   0
   104   185      0   0   0
   104   266      0   0   0
   104   128      0   0  -1
   104   581      0   0  -1
   104   612      0   0  -1
   105    33      0   0   0
   105    81      0   0   0
   105   167      0   0   0
   105   186      0   0   0
   105   267      0   0   0
   105   129     -1   0   0
   105   582     -1   0   0
   105   609     -1   0   0
   106    31      0   0   0
   106    82      0   0   0
   106   165      0   0   0
   106   184      0   0   0
   106   268      0   0   0
   106   130      1   1   1
   106   583      1   1   1
   106   611      1   1   1
   107    32      0   0   0
   107    83      0   0   0
   107   166      0   0   0
   107   187      0   0   0
   107   269      0   0   0
   107   131      0  -1   0
   107   584      0  -1   0
   107   610      0  -1   0
   108    29      0   0   0
   108    84      0   0   0
   108   171      0   0   0
   108   174      0   0   0
   108   270      0   0   0
   108   132      1   0   0
   108   585      1   0   0
   108   606      1   0   0
   109    28      0   0   0
   109    85      0   0   0
   109   170      0   0   0
   109   172      0   0   0
   109   271      0   0   0
   109   133      0   1   0
   109   586      0   1   0
   109   608      0   1   0
   110    27      0   0   0
   110    86      0   0   0
   110   169      0   0   0
   110   175      0   0   0
   110   272      0   0   0
   110   134     -1  -1  -1
   110   587     -1  -1  -1
   110   607     -1  -1  -1
   111    26      0   0   0
   111    87      0   0   0
   111   168      0   0   0
   111   173      0   0   0
   111   273      0   0   0
   111   135      0   0   1
   111   588      0   0   1
   111   605      0   0   1
   112    27      0   0   0
   112    88      0   0   0
   112   175      0   0   0
   112   178      0   0   0
   112   274      0   0   0
   112   136     -1  -1  -1
   112   589     -1  -1  -1
   112   598     -1  -1  -1
   113    26      0   0   0
   113    89      0   0   0
   113   173      0   0   0
   113   176      0   0   0
   113   275      0   0   0
   113   137      0   0   1
   113   590      0   0   1
   113   597      0   0   1
   114    29      0   0   0
   114    90      0   0   0
   114   174      0   0   0
   114   177      0   0   0
   114   276      0   0   0
   114   138      1   0   0
   114   591      1   0   0
   114   600      1   0   0
   115    28      0   0   0
   115    91      0   0   0
   115   172      0   0   0
   115   179      0   0   0
   115   277      0   0   0
   115   139      0   1   0
   115   592      0   1   0
   115   599      0   1   0
   116    34      0   0   0
   116   140      0   0   0
   116   278      0   0   0
   116   617      0   0   0
   116   638      0   0   0
   116    92      0   0  -1
   116   144      0   0  -1
   116   152      0   0  -1
   117    35      0   0   0
   117   141      0   0   0
   117   279      0   0   0
   117   618      0   0   0
   117   640      0   0   0
   117    93      1   1   1
   117   145      1   1   1
   117   154      1   1   1
   118    36      0   0   0
   118   142      0   0   0
   118   280      0   0   0
   118   619      0   0   0
   118   637      0   0   0
   118    94      0  -1   0
   118   146      0  -1   0
   118   155      0  -1   0
   119    37      0   0   0
   119   143      0   0   0
   119   281      0   0   0
   119   620      0   0   0
   119   639      0   0   0
   119    95     -1   0   0
   119   147     -1   0   0
   119   153     -1   0   0
   120   144      0   0   0
   120   282      0   0   0
   120   621      0   0   0
   120    34      0   0   1
   120    96      0   0   1
   120   140      0   0   1
   120   159      0   0   1
   120   638      0   0   1
   121   145      0   0   0
   121   283      0   0   0
   121   622      0   0   0
   121    35     -1  -1  -1
   121    97     -1  -1  -1
   121   141     -1  -1  -1
   121   158     -1  -1  -1
   121   640     -1  -1  -1
   122   146      0   0   0
   122   284      0   0   0
   122   623      0   0   0
   122    36      0   1   0
   122    98      0   1   0
   122   142      0   1   0
   122   157      0   1   0
   122   637      0   1   0
   123   147      0   0   0
   123   285      0   0   0
   123   624      0   0   0
   123    37      1   0   0
   123    99      1   0   0
   123   143      1   0   0
   123   156      1   0   0
   123   639      1   0   0
   124   148      0   0   0
   124   286      0   0   0
   124   625      0   0   0
   124   631      0   0   0
   124    36      0   1   0
   124   100      0   1   0
   124   157      0   1   0
   124   163      0   1   0
   125   149      0   0   0
   125   287      0   0   0
   125   626      0   0   0
   125   629      0   0   0
   125    34      0   0   1
   125   101      0   0   1
   125   159      0   0   1
   125   161      0   0   1
   126   150      0   0   0
   126   288      0   0   0
   126   627      0   0   0
   126   632      0   0   0
   126    37      1   0   0
   126   102      1   0   0
   126   156      1   0   0
   126   162      1   0   0
   127   151      0   0   0
   127   289      0   0   0
   127   628      0   0   0
   127   630      0   0   0
   127    35     -1  -1  -1
   127   103     -1  -1  -1
   127   158     -1  -1  -1
   127   160     -1  -1  -1
   128   152      0   0   0
   128   290      0   0   0
   128    34      0   0   1
   128   104      0   0   1
   128   140      0   0   1
   128   161      0   0   1
   128   617      0   0   1
   128   633      0   0   1
   129   153      0   0   0
   129   291      0   0   0
   129    37      1   0   0
   129   105      1   0   0
   129   143      1   0   0
   129   162      1   0   0
   129   620      1   0   0
   129   636      1   0   0
   130   154      0   0   0
   130   292      0   0   0
   130    35     -1  -1  -1
   130   106     -1  -1  -1
   130   141     -1  -1  -1
   130   160     -1  -1  -1
   130   618     -1  -1  -1
   130   634     -1  -1  -1
   131   155      0   0   0
   131   293      0   0   0
   131    36      0   1   0
   131   107      0   1   0
   131   142      0   1   0
   131   163      0   1   0
   131   619      0   1   0
   131   635      0   1   0
   132    37      0   0   0
   132   156      0   0   0
   132   294      0   0   0
   132   108     -1   0   0
   132   147     -1   0   0
   132   150     -1   0   0
   132   624     -1   0   0
   132   632     -1   0   0
   133    36      0   0   0
   133   157      0   0   0
   133   295      0   0   0
   133   109      0  -1   0
   133   146      0  -1   0
   133   148      0  -1   0
   133   623      0  -1   0
   133   631      0  -1   0
   134    35      0   0   0
   134   158      0   0   0
   134   296      0   0   0
   134   110      1   1   1
   134   145      1   1   1
   134   151      1   1   1
   134   622      1   1   1
   134   630      1   1   1
   135    34      0   0   0
   135   159      0   0   0
   135   297      0   0   0
   135   111      0   0  -1
   135   144      0   0  -1
   135   149      0   0  -1
   135   621      0   0  -1
   135   629      0   0  -1
   136    35      0   0   0
   136   160      0   0   0
   136   298      0   0   0
   136   634      0   0   0
   136   112      1   1   1
   136   151      1   1   1
   136   154      1   1   1
   136   628      1   1   1
   137    34      0   0   0
   137   161      0   0   0
   137   299      0   0   0
   137   633      0   0   0
   137   113      0   0  -1
   137   149      0   0  -1
   137   152      0   0  -1
   137   626      0   0  -1
   138    37      0   0   0
   138   162      0   0   0
   138   300      0   0   0
   138   636      0   0   0
   138   114     -1   0   0
   138   150     -1   0   0
   138   153     -1   0   0
   138   627     -1   0   0
   139    36      0   0   0
   139   163      0   0   0
   139   301      0   0   0
   139   635      0   0   0
   139   115      0  -1   0
   139   148      0  -1   0
   139   155      0  -1   0
   139   625      0  -1   0
   140    30      0   0   0
   140   116      0   0   0
   140   164      0   0   0
   140   302      0   0   0
   140   120      0   0  -1
   140   128      0   0  -1
   140   581      0   0  -1
   140   614      0   0  -1
   141    31      0   0   0
   141   117      0   0   0
   141   165      0   0   0
   141   303      0   0   0
   141   121      1   1   1
   141   130      1   1   1
   141   583      1   1   1
   141   613      1   1   1
   142    32      0   0   0
   142   118      0   0   0
   142   166      0   0   0
   142   304      0   0   0
   142   122      0  -1   0
   142   131      0  -1   0
   142   584      0  -1   0
   142   616      0  -1   0
   143    33      0   0   0
   143   119      0   0   0
   143   167      0   0   0
   143   305      0   0   0
   143   123     -1   0   0
   143   129     -1   0   0
   143   582     -1   0   0
   143   615     -1   0   0
   144    26      0   0   0
   144   120      0   0   0
   144   168      0   0   0
   144   306      0   0   0
   144   116      0   0   1
   144   135      0   0   1
   144   588      0   0   1
   144   602      0   0   1
   145    27      0   0   0
   145   121      0   0   0
   145   169      0   0   0
   145   307      0   0   0
   145   117     -1  -1  -1
   145   134     -1  -1  -1
   145   587     -1  -1  -1
   145   604     -1  -1  -1
   146    28      0   0   0
   146   122      0   0   0
   146   170      0   0   0
   146   308      0   0   0
   146   118      0   1   0
   146   133      0   1   0
   146   586      0   1   0
   146   601      0   1   0
   147    29      0   0   0
   147   123      0   0   0
   147   171      0   0   0
   147   309      0   0   0
   147   119      1   0   0
   147   132      1   0   0
   147   585      1   0   0
   147   603      1   0   0
   148    28      0   0   0
   148   124      0   0   0
   148   172      0   0   0
   148   310      0   0   0
   148   133      0   1   0
   148   139      0   1   0
   148   592      0   1   0
   148   608      0   1   0
   149    26      0   0   0
   149   125      0   0   0
   149   173      0   0   0
   149   311      0   0   0
   149   135      0   0   1
   149   137      0   0   1
   149   590      0   0   1
   149   605      0   0   1
   150    29      0   0   0
   150   126      0   0   0
   150   174      0   0   0
   150   312      0   0   0
   150   132      1   0   0
   150   138      1   0   0
   150   591      1   0   0
   150   606      1   0   0
   151    27      0   0   0
   151   127      0   0   0
   151   175      0   0   0
   151   313      0   0   0
   151   134     -1  -1  -1
   151   136     -1  -1  -1
   151   589     -1  -1  -1
   151   607     -1  -1  -1
   152    26      0   0   0
   152   128      0   0   0
   152   176      0   0   0
   152   314      0   0   0
   152   116      0   0   1
   152   137      0   0   1
   152   569      0   0   1
   152   597      0   0   1
   153    29      0   0   0
   153   129      0   0   0
   153   177      0   0   0
   153   315      0   0   0
   153   119      1   0   0
   153   138      1   0   0
   153   572      1   0   0
   153   600      1   0   0
   154    27      0   0   0
   154   130      0   0   0
   154   178      0   0   0
   154   316      0   0   0
   154   117     -1  -1  -1
   154   136     -1  -1  -1
   154   570     -1  -1  -1
   154   598     -1  -1  -1
   155    28      0   0   0
   155   131      0   0   0
   155   179      0   0   0
   155   317      0   0   0
   155   118      0   1   0
   155   139      0   1   0
   155   571      0   1   0
   155   599      0   1   0
   156    33      0   0   0
   156   132      0   0   0
   156   180      0   0   0
   156   318      0   0   0
   156   123     -1   0   0
   156   126     -1   0   0
   156   576     -1   0   0
   156   596     -1   0   0
   157    32      0   0   0
   157   133      0   0   0
   157   181      0   0   0
   157   319      0   0   0
   157   122      0  -1   0
   157   124      0  -1   0
   157   575      0  -1   0
   157   595      0  -1   0
   158    31      0   0   0
   158   134      0   0   0
   158   182      0   0   0
   158   320      0   0   0
   158   121      1   1   1
   158   127      1   1   1
   158   574      1   1   1
   158   594      1   1   1
   159    30      0   0   0
   159   135      0   0   0
   159   183      0   0   0
   159   321      0   0   0
   159   120      0   0  -1
   159   125      0   0  -1
[...]
   912   423      0   0   0
   912   437      0   0   0
   912   768      0   0   0
   912   789      0   0   0
   912   864      0   0   0
   912   885      0   0   0
   912   972      0   0   0
   912   981      0   0   0
   913   416      0   0   0
   913   424      0   0   0
   913   769      0   0   0
   913   794      0   0   0
   913   865      0   0   0
   913   890      0   0   0
   913   973      0   0   0
   913   986      0   0   0
   914   418      0   0   0
   914   425      0   0   0
   914   770      0   0   0
   914   793      0   0   0
   914   866      0   0   0
   914   889      0   0   0
   914   974      0   0   0
   914   985      0   0   0
   915   417      0   0   0
   915   426      0   0   0
   915   771      0   0   0
   915   796      0   0   0
   915   867      0   0   0
   915   892      0   0   0
   915   975      0   0   0
   915   988      0   0   0
   916   419      0   0   0
   916   427      0   0   0
   916   772      0   0   0
   916   795      0   0   0
   916   868      0   0   0
   916   891      0   0   0
   916   976      0   0   0
   916   987      0   0   0
   917   428      0   0   0
   917   434      0   0   0
   917   773      0   0   0
   917   799      0   0   0
   917   869      0   0   0
   917   895      0   0   0
   917   978      1   1   1
   917   965      0   0   1
   918   429      0   0   0
   918   433      0   0   0
   918   774      0   0   0
   918   800      0   0   0
   918   870      0   0   0
   918   896      0   0   0
   918   968      1   0   0
   918   979      0  -1   0
   919   430      0   0   0
   919   435      0   0   0
   919   775      0   0   0
   919   797      0   0   0
   919   871      0   0   0
   919   893      0   0   0
   919   977      0   0  -1
   919   966     -1  -1  -1
   920   431      0   0   0
   920   432      0   0   0
   920   776      0   0   0
   920   798      0   0   0
   920   872      0   0   0
   920   894      0   0   0
   920   967      0   1   0
   920   980     -1   0   0
   921   431      0   0   0
   921   432      0   0   0
   921   777      0   0   0
   921   802      0   0   0
   921   873      0   0   0
   921   898      0   0   0
   921   983      0   1   0
   921   972     -1   0   0
   922   429      0   0   0
   922   433      0   0   0
   922   778      0   0   0
   922   801      0   0   0
   922   874      0   0   0
   922   897      0   0   0
   922   984      1   0   0
   922   971      0  -1   0
   923   428      0   0   0
   923   434      0   0   0
   923   779      0   0   0
   923   804      0   0   0
   923   875      0   0   0
   923   900      0   0   0
   923   970      1   1   1
   923   981      0   0   1
   924   430      0   0   0
   924   435      0   0   0
   924   780      0   0   0
   924   803      0   0   0
   924   876      0   0   0
   924   899      0   0   0
   924   969      0   0  -1
   924   982     -1  -1  -1
   925   422      0   0   0
   925   436      0   0   0
   925   781      0   0   0
   925   808      0   0   0
   925   877      0   0   0
   925   904      0   0   0
   925   976      1   1   1
   925   985      0   1   0
   926   423      0   0   0
   926   437      0   0   0
   926   782      0   0   0
   926   807      0   0   0
   926   878      0   0   0
   926   903      0   0   0
   926   987      1   0   0
   926   974      0   0  -1
   927   420      0   0   0
   927   438      0   0   0
   927   783      0   0   0
   927   806      0   0   0
   927   879      0   0   0
   927   902      0   0   0
   927   986      0   0   1
   927   975     -1   0   0
   928   421      0   0   0
   928   439      0   0   0
   928   784      0   0   0
   928   805      0   0   0
   928   880      0   0   0
   928   901      0   0   0
   928   973      0  -1   0
   928   988     -1  -1  -1
   929   461      1   0   0
   929   469      1   0   0
   929   860      1   0   0
   929   882      1   0   0
   929   458      0  -1   0
   929   466      0  -1   0
   929   857      0  -1   0
   929   883      0  -1   0
   930   460      0   1   0
   930   467      0   1   0
   930   859      0   1   0
   930   881      0   1   0
   930   459     -1   0   0
   930   468     -1   0   0
   930   858     -1   0   0
   930   884     -1   0   0
   931   462      1   0   0
   931   480      1   0   0
   931   861      1   0   0
   931   888      1   0   0
   931   464      0  -1   0
   931   478      0  -1   0
   931   863      0  -1   0
   931   886      0  -1   0
   932   463      0   1   0
   932   481      0   1   0
   932   862      0   1   0
   932   887      0   1   0
   932   465     -1   0   0
   932   479     -1   0   0
   932   864     -1   0   0
   932   885     -1   0   0
   933   458      0   0   1
   933   466      0   0   1
   933   865      0   0   1
   933   890      0   0   1
   933   459     -1   0   0
   933   468     -1   0   0
   933   867     -1   0   0
   933   892     -1   0   0
   934   461      1   1   1
   934   469      1   1   1
   934   868      1   1   1
   934   891      1   1   1
   934   460      0   1   0
   934   467      0   1   0
   934   866      0   1   0
   934   889      0   1   0
   935   471     -1   0   0
   935   475     -1   0   0
   935   870     -1   0   0
   935   896     -1   0   0
   935   470     -1  -1  -1
   935   476     -1  -1  -1
   935   869     -1  -1  -1
   935   895     -1  -1  -1
   936   472      0   0   1
   936   477      0   0   1
   936   871      0   0   1
   936   893      0   0   1
   936   473      0  -1   0
   936   474      0  -1   0
   936   872      0  -1   0
   936   894      0  -1   0
   937   473      0  -1   0
   937   474      0  -1   0
   937   873      0  -1   0
   937   898      0  -1   0
   937   470     -1  -1  -1
   937   476     -1  -1  -1
   937   875     -1  -1  -1
   937   900     -1  -1  -1
   938   472      0   0   1
   938   477      0   0   1
   938   876      0   0   1
   938   899      0   0   1
   938   471     -1   0   0
   938   475     -1   0   0
   938   874     -1   0   0
   938   897     -1   0   0
   939   465      0   0   1
   939   479      0   0   1
   939   878      0   0   1
   939   903      0   0   1
   939   464      0  -1   0
   939   478      0  -1   0
   939   877      0  -1   0
   939   904      0  -1   0
   940   463      0   1   0
   940   481      0   1   0
   940   880      0   1   0
   940   901      0   1   0
   940   462      0   0  -1
   940   480      0   0  -1
   940   879      0   0  -1
   940   902      0   0  -1
   941   665      0   0   0
   941   857      0   0   0
   941   965      0   0   0
   941   773      0   0  -1
   941   799      0   0  -1
   941   690      1   1   0
   941   882      1   1   0
   941   978      1   1   0
   942   666      0   0   0
   942   858      0   0   0
   942   966      0   0   0
   942   775      1   1   1
   942   797      1   1   1
   942   689      1   1   0
   942   881      1   1   0
   942   977      1   1   0
   943   667      0   0   0
   943   859      0   0   0
   943   967      0   0   0
   943   776      0  -1   0
   943   798      0  -1   0
   943   692     -1  -1   0
   943   884     -1  -1   0
   943   980     -1  -1   0
   944   668      0   0   0
   944   860      0   0   0
   944   968      0   0   0
   944   774     -1   0   0
   944   800     -1   0   0
   944   691     -1  -1   0
   944   883     -1  -1   0
   944   979     -1  -1   0
   945   669      0   0   0
   945   861      0   0   0
   945   969      0   0   0
   945   780      0   0   1
   945   803      0   0   1
   945   694     -1  -1   0
   945   886     -1  -1   0
   945   982     -1  -1   0
   946   670      0   0   0
   946   862      0   0   0
   946   970      0   0   0
   946   779     -1  -1  -1
   946   804     -1  -1  -1
   946   693     -1  -1   0
   946   885     -1  -1   0
   946   981     -1  -1   0
   947   671      0   0   0
   947   863      0   0   0
   947   971      0   0   0
   947   778      0   1   0
   947   801      0   1   0
   947   696      1   1   0
   947   888      1   1   0
   947   984      1   1   0
   948   672      0   0   0
   948   864      0   0   0
   948   972      0   0   0
   948   777      1   0   0
   948   802      1   0   0
   948   695      1   1   0
   948   887      1   1   0
   948   983      1   1   0
   949   673      0   0   0
   949   865      0   0   0
   949   973      0   0   0
   949   784      0   1   0
   949   805      0   1   0
   949   700     -1   0  -1
   949   892     -1   0  -1
   949   988     -1   0  -1
   950   674      0   0   0
   950   866      0   0   0
   950   974      0   0   0
   950   782      0   0   1
   950   807      0   0   1
   950   699      1   0   1
   950   891      1   0   1
   950   987      1   0   1
   951   675      0   0   0
   951   867      0   0   0
   951   975      0   0   0
   951   783      1   0   0
   951   806      1   0   0
   951   698      1   0   1
   951   890      1   0   1
   951   986      1   0   1
   952   676      0   0   0
   952   868      0   0   0
   952   976      0   0   0
   952   781     -1  -1  -1
   952   808     -1  -1  -1
   952   697     -1   0  -1
   952   889     -1   0  -1
   952   985     -1   0  -1
   953   677      0   0   0
   953   869      0   0   0
   953   761      0   0   1
   953   787      0   0   1
   953   965      0   0   1
   953   979      0   0   1
   953   704      0   1   1
   953   896      0   1   1
   954   678      0   0   0
   954   870      0   0   0
   954   764      1   0   0
   954   786      1   0   0
   954   968      1   0   0
   954   978      1   0   0
   954   703      0  -1  -1
   954   895      0  -1  -1
   955   679      0   0   0
   955   871      0   0   0
   955   762     -1  -1  -1
   955   788     -1  -1  -1
   955   966     -1  -1  -1
   955   980     -1  -1  -1
   955   702      0  -1  -1
   955   894      0  -1  -1
   956   680      0   0   0
   956   872      0   0   0
   956   763      0   1   0
   956   785      0   1   0
   956   967      0   1   0
   956   977      0   1   0
   956   701      0   1   1
   956   893      0   1   1
   957   681      0   0   0
   957   873      0   0   0
   957   768     -1   0   0
   957   789     -1   0   0
   957   972     -1   0   0
   957   981     -1   0   0
   957   708     -1   0  -1
   957   900     -1   0  -1
   958   682      0   0   0
   958   874      0   0   0
   958   767      0  -1   0
   958   790      0  -1   0
   958   971      0  -1   0
   958   982      0  -1   0
   958   707      1   0   1
   958   899      1   0   1
   959   683      0   0   0
   959   875      0   0   0
   959   766      1   1   1
   959   791      1   1   1
   959   970      1   1   1
   959   983      1   1   1
   959   706      1   0   1
   959   898      1   0   1
   960   684      0   0   0
   960   876      0   0   0
   960   765      0   0  -1
   960   792      0   0  -1
   960   969      0   0  -1
   960   984      0   0  -1
   960   705     -1   0  -1
   960   897     -1   0  -1
   961   685      0   0   0
   961   877      0   0   0
   961   772      1   1   1
   961   795      1   1   1
   961   976      1   1   1
   961   987      1   1   1
   961   711      0   1   1
   961   903      0   1   1
   962   686      0   0   0
   962   878      0   0   0
   962   770      0   0  -1
   962   793      0   0  -1
   962   974      0   0  -1
   962   985      0   0  -1
   962   712      0  -1  -1
   962   904      0  -1  -1
   963   687      0   0   0
   963   879      0   0   0
   963   771     -1   0   0
   963   796     -1   0   0
   963   975     -1   0   0
   963   988     -1   0   0
   963   709      0   1   1
   963   901      0   1   1
   964   688      0   0   0
   964   880      0   0   0
   964   769      0  -1   0
   964   794      0  -1   0
   964   973      0  -1   0
   964   986      0  -1   0
   964   710      0  -1  -1
   964   902      0  -1  -1
   965   713      0   0   0
   965   905      0   0   0
   965   941      0   0   0
   965   989      0   1   0
   965   725      0   0  -1
   965   917      0   0  -1
   965   953      0   0  -1
   965   995      1   1   0
   966   714      0   0   0
   966   906      0   0   0
   966   942      0   0   0
   966   727      1   1   1
   966   919      1   1   1
   966   955      1   1   1
   966   990      1   0   0
   966   996      1   1   0
   967   715      0   0   0
   967   907      0   0   0
   967   943      0   0   0
   967   996      0   0   0
   967   728      0  -1   0
   967   920      0  -1   0
   967   956      0  -1   0
   967   990      0  -1   0
   968   716      0   0   0
   968   908      0   0   0
   968   944      0   0   0
   968   995      0   0   0
   968   726     -1   0   0
   968   918     -1   0   0
   968   954     -1   0   0
   968   989     -1   0   0
   969   717      0   0   0
   969   909      0   0   0
   969   945      0   0   0
   969   998      0   0   0
   969   732      0   0   1
   969   924      0   0   1
   969   960      0   0   1
   969   991     -1   0   0
   970   718      0   0   0
   970   910      0   0   0
   970   946      0   0   0
   970   997      0   0   0
   970   992      0  -1   0
   970   731     -1  -1  -1
   970   923     -1  -1  -1
   970   959     -1  -1  -1
   971   719      0   0   0
   971   911      0   0   0
   971   947      0   0   0
   971   730      0   1   0
   971   922      0   1   0
   971   958      0   1   0
   971   991      0   1   0
   971   998      1   1   0
   972   720      0   0   0
   972   912      0   0   0
   972   948      0   0   0
   972   729      1   0   0
   972   921      1   0   0
   972   957      1   0   0
   972   992      1   0   0
   972   997      1   1   0
   973   721      0   0   0
   973   913      0   0   0
   973   949      0   0   0
   973  1000      0   0   0
   973   736      0   1   0
   973   928      0   1   0
   973   964      0   1   0
   973   993      0   0  -1
   974   722      0   0   0
   974   914      0   0   0
   974   950      0   0   0
   974   999      0   0   0
   974   734      0   0   1
   974   926      0   0   1
   974   962      0   0   1
   974   994      0  -1   0
   975   723      0   0   0
   975   915      0   0   0
   975   951      0   0   0
   975   735      1   0   0
   975   927      1   0   0
   975   963      1   0   0
   975   993      1   0   0
   975  1000      1   0   1
   976   724      0   0   0
   976   916      0   0   0
   976   952      0   0   0
   976   733     -1  -1  -1
   976   925     -1  -1  -1
   976   961     -1  -1  -1
   976   994     -1  -1  -1
   976   999     -1   0  -1
   977   737      0   0   0
   977   907      0   0   0
   977   996      0   0   0
   977   749      0   0   1
   977   919      0   0   1
   977   956      0  -1   0
   977   990      0  -1   0
   977   942     -1  -1   0
   978   738      0   0   0
   978   908      0   0   0
   978   995      0   0   0
   978   954     -1   0   0
   978   989     -1   0   0
   978   751     -1  -1  -1
   978   917     -1  -1  -1
   978   941     -1  -1   0
   979   739      0   0   0
   979   905      0   0   0
   979   752      0   1   0
   979   918      0   1   0
   979   989      0   1   0
   979   953      0   0  -1
   979   944      1   1   0
   979   995      1   1   0
   980   740      0   0   0
   980   906      0   0   0
   980   955      1   1   1
   980   750      1   0   0
   980   920      1   0   0
   980   990      1   0   0
   980   943      1   1   0
   980   996      1   1   0
   981   741      0   0   0
   981   912      0   0   0
   981   957      1   0   0
   981   992      1   0   0
   981   756      0   0  -1
   981   923      0   0  -1
   981   946      1   1   0
   981   997      1   1   0
   982   742      0   0   0
   982   911      0   0   0
   982   755      1   1   1
   982   924      1   1   1
   982   958      0   1   0
   982   991      0   1   0
   982   945      1   1   0
   982   998      1   1   0
   983   743      0   0   0
   983   910      0   0   0
   983   997      0   0   0
   983   754      0  -1   0
   983   921      0  -1   0
   983   992      0  -1   0
   983   959     -1  -1  -1
   983   948     -1  -1   0
   984   744      0   0   0
   984   909      0   0   0
   984   998      0   0   0
   984   960      0   0   1
   984   753     -1   0   0
   984   922     -1   0   0
   984   991     -1   0   0
   984   947     -1  -1   0
   985   745      0   0   0
   985   914      0   0   0
   985   999      0   0   0
   985   962      0   0   1
   985   760      0  -1   0
   985   925      0  -1   0
   985   994      0  -1   0
   985   952      1   0   1
   986   746      0   0   0
   986   913      0   0   0
   986  1000      0   0   0
   986   964      0   1   0
   986   758      0   0  -1
   986   927      0   0  -1
   986   993      0   0  -1
   986   951     -1   0  -1
   987   747      0   0   0
   987   916      0   0   0
   987   759     -1   0   0
   987   926     -1   0   0
   987   961     -1  -1  -1
   987   994     -1  -1  -1
   987   950     -1   0  -1
   987   999     -1   0  -1
   988   748      0   0   0
   988   915      0   0   0
   988   757      1   1   1
   988   928      1   1   1
   988   963      1   0   0
   988   993      1   0   0
   988   949      1   0   1
   988  1000      1   0   1
   989   860      1   0   0
   989   882      1   0   0
   989   968      1   0   0
   989   978      1   0   0
   989   857      0  -1   0
   989   883      0  -1   0
   989   965      0  -1   0
   989   979      0  -1   0
   990   859      0   1   0
   990   881      0   1   0
   990   967      0   1   0
   990   977      0   1   0
   990   858     -1   0   0
   990   884     -1   0   0
   990   966     -1   0   0
   990   980     -1   0   0
   991   861      1   0   0
   991   888      1   0   0
   991   969      1   0   0
   991   984      1   0   0
   991   863      0  -1   0
   991   886      0  -1   0
   991   971      0  -1   0
   991   982      0  -1   0
   992   862      0   1   0
   992   887      0   1   0
   992   970      0   1   0
   992   983      0   1   0
   992   864     -1   0   0
   992   885     -1   0   0
   992   972     -1   0   0
   992   981     -1   0   0
   993   865      0   0   1
   993   890      0   0   1
   993   973      0   0   1
   993   986      0   0   1
   993   867     -1   0   0
   993   892     -1   0   0
   993   975     -1   0   0
   993   988     -1   0   0
   994   868      1   1   1
   994   891      1   1   1
   994   976      1   1   1
   994   987      1   1   1
   994   866      0   1   0
   994   889      0   1   0
   994   974      0   1   0
   994   985      0   1   0
   995   968      0   0   0
   995   978      0   0   0
   995   870     -1   0   0
   995   896     -1   0   0
   995   869     -1  -1  -1
   995   895     -1  -1  -1
   995   965     -1  -1   0
   995   979     -1  -1   0
   996   967      0   0   0
   996   977      0   0   0
   996   871      0   0   1
   996   893      0   0   1
   996   872      0  -1   0
   996   894      0  -1   0
   996   966     -1  -1   0
   996   980     -1  -1   0
   997   970      0   0   0
   997   983      0   0   0
   997   873      0  -1   0
   997   898      0  -1   0
   997   875     -1  -1  -1
   997   900     -1  -1  -1
   997   972     -1  -1   0
   997   981     -1  -1   0
   998   969      0   0   0
   998   984      0   0   0
   998   876      0   0   1
   998   899      0   0   1
   998   874     -1   0   0
   998   897     -1   0   0
   998   971     -1  -1   0
   998   982     -1  -1   0
   999   974      0   0   0
   999   985      0   0   0
   999   878      0   0   1
   999   903      0   0   1
   999   877      0  -1   0
   999   904      0  -1   0
   999   976      1   0   1
   999   987      1   0   1
  1000   973      0   0   0
  1000   986      0   0   0
  1000   880      0   1   0
  1000   901      0   1   0
  1000   879      0   0  -1
  1000   902      0   0  -1
  1000   975     -1   0  -1
  1000   988     -1   0  -1
end nnkpts

begin exclude_bands
   0
end exclude_bands
