 written on  1Aug2024 at 14:10:09 
           8
        1163
    3    2    2    3    2    3    3    2    2    2    1    2    2    1    1
    2    2    1    1    1    2    2    1    1    1    1    2    3    2    2
    2    2    2    3    6    2    2    2    1    2    2    1    1    2    2
    1    1    1    2    2    1    1    1    1    2    2    1    1    1    1
    1    2    2    1    1    1    1    1    1    2    2    1    1    1    1
    1    1    1    2    2    1    1    1    1    1    1    1    1    2    6
    2    2    2    2    2    2    2    2    2    6    2    2    3    1    1
    1    3    2    1    1    1    1    2    2    1    1    1    1    1    2
    2    1    1    1    1    1    1    2    2    1    1    1    1    1    1
    1    2    2    1    1    1    1    1    1    1    1    2    3    1    1
    1    1    1    1    1    1    1    3    1    1    1    1    1    1    1
    1    1    1    2    1    1    1    1    1    1    1    1    1    2    2
    1    1    1    1    1    1    1    1    2    3    2    2    2    2    2
    3    2    1    2    2    1    1    1    1    2    3    1    1    1    1
    1    1    1    3    2    1    1    1    1    1    1    1    1    2    3
    1    1    1    1    1    1    1    1    1    3    1    1    1    1    1
    1    1    1    1    1    2    1    1    1    1    1    1    1    1    1
    2    1    1    1    1    1    1    1    1    1    1    2    1    1    1
    1    1    1    1    1    1    2    1    1    1    1    1    1    1    1
    1    1    2    1    1    1    1    1    1    1    2    2    1    1    1
    1    2    3    2    3    3    2    1    1    2    2    1    1    1    1
    1    2    2    1    1    1    1    1    1    1    1    2    2    1    1
    1    1    1    1    1    1    1    2    1    1    1    1    1    1    1
    1    1    1    2    1    1    1    1    1    1    1    1    1    2    1
    1    1    1    1    1    1    1    1    1    2    1    1    1    1    1
    1    1    1    1    2    1    1    1    1    1    1    1    1    1    1
    3    1    1    1    1    1    1    1    1    1    3    2    1    1    1
    1    1    1    2    2    1    1    1    2    2    2    2    2    2    1
    1    1    2    2    1    1    1    1    1    1    2    3    1    1    1
    1    1    1    1    1    1    3    1    1    1    1    1    1    1    1
    1    1    2    1    1    1    1    1    1    1    1    1    2    1    1
    1    1    1    1    1    1    1    1    2    1    1    1    1    1    1
    1    1    1    2    1    1    1    1    1    1    1    1    1    1    2
    1    1    1    1    1    1    1    1    1    2    2    1    1    1    1
    1    1    1    1    2    2    1    1    1    1    1    2    2    1    1
    2    3    2    1    2    2    1    1    1    1    2    2    1    1    1
    1    1    1    1    2    1    1    1    1    1    1    1    1    1    1
    2    1    1    1    1    1    1    1    1    1    2    1    1    1    1
    1    1    1    1    1    1    2    1    1    1    1    1    1    1    1
    1    2    1    1    1    1    1    1    1    1    1    1    2    1    1
    1    1    1    1    1    1    1    2    1    1    1    1    1    1    1
    1    1    1    2    1    1    1    1    1    1    1    2    2    1    1
    1    1    2    2    1    2    3    2    1    1    2    2    1    1    1
    1    1    2    2    1    1    1    1    1    1    1    1    2    2    1
    1    1    1    1    1    1    1    1    2    1    1    1    1    1    1
    1    1    1    1    2    1    1    1    1    1    1    1    1    1    2
    1    1    1    1    1    1    1    1    1    1    2    1    1    1    1
    1    1    1    1    1    2    1    1    1    1    1    1    1    1    1
    1    3    1    1    1    1    1    1    1    1    1    3    2    1    1
    1    1    1    1    2    2    1    1    1    2    2    2    2    2    2
    1    1    1    2    2    1    1    1    1    1    1    2    3    1    1
    1    1    1    1    1    1    1    3    1    1    1    1    1    1    1
    1    1    1    2    1    1    1    1    1    1    1    1    1    2    1
    1    1    1    1    1    1    1    1    1    2    1    1    1    1    1
    1    1    1    1    2    1    1    1    1    1    1    1    1    1    1
    2    1    1    1    1    1    1    1    1    1    2    2    1    1    1
    1    1    1    1    1    2    2    1    1    1    1    1    2    2    1
    1    2    3    3    2    3    2    1    1    1    1    2    2    1    1
    1    1    1    1    1    2    1    1    1    1    1    1    1    1    1
    1    2    1    1    1    1    1    1    1    1    1    2    1    1    1
    1    1    1    1    1    1    1    2    1    1    1    1    1    1    1
    1    1    2    1    1    1    1    1    1    1    1    1    1    3    1
    1    1    1    1    1    1    1    1    3    2    1    1    1    1    1
    1    1    1    2    3    1    1    1    1    1    1    1    3    2    1
    1    1    1    2    2    1    2    3    2    2    2    2    2    3    2
    1    1    1    1    1    1    1    1    2    2    1    1    1    1    1
    1    1    1    1    2    1    1    1    1    1    1    1    1    1    1
    3    1    1    1    1    1    1    1    1    1    3    2    1    1    1
    1    1    1    1    1    2    2    1    1    1    1    1    1    1    2
    2    1    1    1    1    1    1    2    2    1    1    1    1    1    2
    2    1    1    1    1    2    3    1    1    1    3    2    2    6    2
    2    2    2    2    2    2    2    2    6    2    1    1    1    1    1
    1    1    1    2    2    1    1    1    1    1    1    1    2    2    1
    1    1    1    1    1    2    2    1    1    1    1    1    2    2    1
    1    1    1    2    2    1    1    1    2    2    1    1    2    2    1
    2    2    2    6    3    2    2    2    2    2    3    2    1    1    1
    1    2    2    1    1    1    2    2    1    1    2    2    1    2    2
    2    3    3    2    3    2    2    3
   -7    1    3    1    1   -0.000208   -0.000000
   -7    1    3    2    1    0.000380   -0.000000
   -7    1    3    3    1    0.000380   -0.000000
   -7    1    3    4    1    0.000380    0.000000
   -7    1    3    5    1   -0.000002   -0.000000
   -7    1    3    6    1   -0.000046    0.000000
   -7    1    3    7    1   -0.000046   -0.000000
   -7    1    3    8    1    0.000063    0.000000
   -7    1    3    1    2   -0.000380    0.000000
   -7    1    3    2    2   -0.001148   -0.000000
   -7    1    3    3    2    0.000403   -0.000000
   -7    1    3    4    2    0.000403   -0.000000
   -7    1    3    5    2   -0.000005   -0.000000
   -7    1    3    6    2   -0.000115    0.000000
   -7    1    3    7    2    0.000034    0.000000
   -7    1    3    8    2    0.000211    0.000000
   -7    1    3    1    3   -0.000380    0.000000
   -7    1    3    2    3    0.000403    0.000000
   -7    1    3    3    3   -0.001148    0.000000
   -7    1    3    4    3    0.000403   -0.000000
   -7    1    3    5    3   -0.000005    0.000000
   -7    1    3    6    3    0.000034   -0.000000
   -7    1    3    7    3   -0.000115    0.000000
   -7    1    3    8    3    0.000211    0.000000
   -7    1    3    1    4   -0.000380   -0.000000
   -7    1    3    2    4    0.000403    0.000000
   -7    1    3    3    4    0.000403   -0.000000
   -7    1    3    4    4   -0.001148    0.000000
   -7    1    3    5    4   -0.000057   -0.000000
   -7    1    3    6    4    0.000028    0.000000
   -7    1    3    7    4    0.000028    0.000000
   -7    1    3    8    4   -0.000075   -0.000000
   -7    1    3    1    5    0.000003   -0.000000
   -7    1    3    2    5    0.000035    0.000000
   -7    1    3    3    5    0.000035   -0.000000
   -7    1    3    4    5    0.000065    0.000000
   -7    1    3    5    5    0.000003   -0.000000
   -7    1    3    6    5    0.000011   -0.000000
   -7    1    3    7    5    0.000011    0.000000
   -7    1    3    8    5    0.000011    0.000000
   -7    1    3    1    6   -0.000039    0.000000
   -7    1    3    2    6   -0.000106   -0.000000
   -7    1    3    3    6    0.000047   -0.000000
   -7    1    3    4    6    0.000076   -0.000000
   -7    1    3    5    6   -0.000011    0.000000
   -7    1    3    6    6   -0.000004    0.000000
   -7    1    3    7    6    0.000004    0.000000
   -7    1    3    8    6    0.000004   -0.000000
   -7    1    3    1    7   -0.000039    0.000000
   -7    1    3    2    7    0.000047    0.000000
   -7    1    3    3    7   -0.000106   -0.000000
   -7    1    3    4    7    0.000076    0.000000
   -7    1    3    5    7   -0.000011   -0.000000
   -7    1    3    6    7    0.000004    0.000000
   -7    1    3    7    7   -0.000004   -0.000000
   -7    1    3    8    7    0.000004    0.000000
   -7    1    3    1    8    0.000037    0.000000
   -7    1    3    2    8   -0.000124    0.000000
   -7    1    3    3    8   -0.000124    0.000000
   -7    1    3    4    8   -0.000196   -0.000000
   -7    1    3    5    8   -0.000011   -0.000000
   -7    1    3    6    8    0.000004    0.000000
   -7    1    3    7    8    0.000004    0.000000
   -7    1    3    8    8   -0.000004   -0.000000
   -7    2    2    1    1   -0.000163   -0.000000
   -7    2    2    2    1   -0.000000   -0.000000
   -7    2    2    3    1    0.000000   -0.000000
   -7    2    2    4    1   -0.000107    0.000000
   -7    2    2    5    1   -0.000036   -0.000000
   -7    2    2    6    1   -0.000000    0.000000
   -7    2    2    7    1   -0.000000    0.000000
   -7    2    2    8    1   -0.000000   -0.000000
   -7    2    2    1    2   -0.000000    0.000000
   -7    2    2    2    2   -0.001107   -0.000000
   -7    2    2    3    2    0.000564   -0.000000
   -7    2    2    4    2    0.000000   -0.000000
   -7    2    2    5    2    0.000000    0.000000
   -7    2    2    6    2   -0.000164    0.000000
   -7    2    2    7    2   -0.000000   -0.000000
   -7    2    2    8    2    0.000000   -0.000000
   -7    2    2    1    3    0.000000    0.000000
   -7    2    2    2    3    0.000564    0.000000
   -7    2    2    3    3   -0.001107   -0.000000
   -7    2    2    4    3   -0.000000    0.000000
   -7    2    2    5    3    0.000000    0.000000
   -7    2    2    6    3    0.000000   -0.000000
   -7    2    2    7    3   -0.000164    0.000000
   -7    2    2    8    3    0.000000    0.000000
   -7    2    2    1    4    0.000107    0.000000
   -7    2    2    2    4    0.000000    0.000000
   -7    2    2    3    4    0.000000    0.000000
   -7    2    2    4    4   -0.001782   -0.000000
   -7    2    2    5    4   -0.000000    0.000000
   -7    2    2    6    4   -0.000000    0.000000
   -7    2    2    7    4   -0.000000    0.000000
   -7    2    2    8    4   -0.000164    0.000000
   -7    2    2    1    5    0.000029   -0.000000
   -7    2    2    2    5    0.000000   -0.000000
   -7    2    2    3    5   -0.000000    0.000000
   -7    2    2    4    5   -0.000020    0.000000
   -7    2    2    5    5   -0.000000    0.000000
   -7    2    2    6    5   -0.000000   -0.000000
   -7    2    2    7    5   -0.000000    0.000000
   -7    2    2    8    5   -0.000009    0.000000
   -7    2    2    1    6   -0.000000    0.000000
   -7    2    2    2    6   -0.000094   -0.000000
   -7    2    2    3    6    0.000264   -0.000000
   -7    2    2    4    6   -0.000000   -0.000000
   -7    2    2    5    6   -0.000000    0.000000
   -7    2    2    6    6   -0.000012    0.000000
   -7    2    2    7    6    0.000027    0.000000
   -7    2    2    8    6   -0.000000   -0.000000
   -7    2    2    1    7    0.000000    0.000000
   -7    2    2    2    7    0.000264   -0.000000
   -7    2    2    3    7   -0.000094   -0.000000
   -7    2    2    4    7    0.000000    0.000000
   -7    2    2    5    7    0.000000   -0.000000
   -7    2    2    6    7    0.000027    0.000000
   -7    2    2    7    7   -0.000012    0.000000
   -7    2    2    8    7    0.000000   -0.000000
   -7    2    2    1    8    0.000066    0.000000
   -7    2    2    2    8   -0.000000    0.000000
   -7    2    2    3    8    0.000000    0.000000
   -7    2    2    4    8   -0.000178    0.000000
   -7    2    2    5    8    0.000009    0.000000
   -7    2    2    6    8   -0.000000    0.000000
   -7    2    2    7    8   -0.000000    0.000000
   -7    2    2    8    8    0.000007    0.000000
   -7    2    3    1    1   -0.000163   -0.000000
   -7    2    3    2    1   -0.000000    0.000000
   -7    2    3    3    1   -0.000107   -0.000000
   -7    2    3    4    1    0.000000    0.000000
   -7    2    3    5    1   -0.000002    0.000000
   -7    2    3    6    1   -0.000063    0.000000
   -7    2    3    7    1   -0.000046   -0.000000
   -7    2    3    8    1    0.000046   -0.000000
   -7    2    3    1    2   -0.000000    0.000000
   -7    2    3    2    2   -0.001107   -0.000000
   -7    2    3    3    2    0.000000   -0.000000
   -7    2    3    4    2    0.000564   -0.000000
   -7    2    3    5    2    0.000057   -0.000000
   -7    2    3    6    2   -0.000075    0.000000
   -7    2    3    7    2   -0.000028    0.000000
   -7    2    3    8    2    0.000028    0.000000
   -7    2    3    1    3    0.000107    0.000000
   -7    2    3    2    3   -0.000000    0.000000
   -7    2    3    3    3   -0.001782   -0.000000
   -7    2    3    4    3   -0.000000   -0.000000
   -7    2    3    5    3   -0.000005   -0.000000
   -7    2    3    6    3   -0.000211   -0.000000
   -7    2    3    7    3   -0.000115    0.000000
   -7    2    3    8    3   -0.000034    0.000000
   -7    2    3    1    4   -0.000000   -0.000000
   -7    2    3    2    4    0.000564    0.000000
   -7    2    3    3    4    0.000000    0.000000
   -7    2    3    4    4   -0.001107    0.000000
   -7    2    3    5    4    0.000005    0.000000
   -7    2    3    6    4    0.000211    0.000000
   -7    2    3    7    4   -0.000034   -0.000000
   -7    2    3    8    4   -0.000115    0.000000
   -7    2    3    1    5   -0.000002   -0.000000
   -7    2    3    2    5    0.000057   -0.000000
   -7    2    3    3    5    0.000005    0.000000
   -7    2    3    4    5    0.000005    0.000000
   -7    2    3    5    5   -0.000000   -0.000000
   -7    2    3    6    5    0.000000   -0.000000
   -7    2    3    7    5   -0.000009    0.000000
   -7    2    3    8    5   -0.000000    0.000000
   -7    2    3    1    6   -0.000063    0.000000
   -7    2    3    2    6   -0.000075   -0.000000
   -7    2    3    3    6    0.000211    0.000000
   -7    2    3    4    6    0.000211   -0.000000
   -7    2    3    5    6    0.000000    0.000000
   -7    2    3    6    6   -0.000012    0.000000
   -7    2    3    7    6    0.000000   -0.000000
   -7    2    3    8    6    0.000027   -0.000000
   -7    2    3    1    7    0.000046    0.000000
   -7    2    3    2    7    0.000028   -0.000000
   -7    2    3    3    7   -0.000115    0.000000
   -7    2    3    4    7    0.000034    0.000000
   -7    2    3    5    7    0.000009    0.000000
   -7    2    3    6    7    0.000000    0.000000
   -7    2    3    7    7    0.000007    0.000000
   -7    2    3    8    7    0.000000    0.000000
   -7    2    3    1    8    0.000046   -0.000000
   -7    2    3    2    8    0.000028    0.000000
   -7    2    3    3    8    0.000034    0.000000
   -7    2    3    4    8   -0.000115    0.000000
   -7    2    3    5    8    0.000000    0.000000
   -7    2    3    6    8    0.000027   -0.000000
   -7    2    3    7    8   -0.000000    0.000000
   -7    2    3    8    8   -0.000012    0.000000
   -7    3    1    1    1   -0.000208   -0.000000
   -7    3    1    2    1   -0.000380   -0.000000
   -7    3    1    3    1   -0.000380    0.000000
   -7    3    1    4    1    0.000380    0.000000
   -7    3    1    5    1   -0.000002    0.000000
   -7    3    1    6    1    0.000046   -0.000000
   -7    3    1    7    1    0.000046    0.000000
   -7    3    1    8    1    0.000063   -0.000000
   -7    3    1    1    2    0.000380    0.000000
   -7    3    1    2    2   -0.001148   -0.000000
   -7    3    1    3    2    0.000403   -0.000000
   -7    3    1    4    2   -0.000403    0.000000
   -7    3    1    5    2    0.000005    0.000000
   -7    3    1    6    2   -0.000115   -0.000000
   -7    3    1    7    2    0.000034    0.000000
   -7    3    1    8    2   -0.000211   -0.000000
   -7    3    1    1    3    0.000380   -0.000000
   -7    3    1    2    3    0.000403   -0.000000
   -7    3    1    3    3   -0.001148   -0.000000
   -7    3    1    4    3   -0.000403    0.000000
   -7    3    1    5    3    0.000005   -0.000000
   -7    3    1    6    3    0.000034    0.000000
   -7    3    1    7    3   -0.000115    0.000000
   -7    3    1    8    3   -0.000211    0.000000
   -7    3    1    1    4   -0.000380   -0.000000
   -7    3    1    2    4   -0.000403    0.000000
   -7    3    1    3    4   -0.000403    0.000000
   -7    3    1    4    4   -0.001148    0.000000
   -7    3    1    5    4   -0.000057   -0.000000
   -7    3    1    6    4   -0.000028   -0.000000
   -7    3    1    7    4   -0.000028    0.000000
   -7    3    1    8    4   -0.000075   -0.000000
   -7    3    1    1    5    0.000003    0.000000
   -7    3    1    2    5   -0.000035   -0.000000
   -7    3    1    3    5   -0.000035    0.000000
   -7    3    1    4    5    0.000065    0.000000
   -7    3    1    5    5    0.000003    0.000000
   -7    3    1    6    5   -0.000011   -0.000000
   -7    3    1    7    5   -0.000011   -0.000000
   -7    3    1    8    5    0.000011    0.000000
   -7    3    1    1    6    0.000039    0.000000
   -7    3    1    2    6   -0.000106    0.000000
   -7    3    1    3    6    0.000047    0.000000
   -7    3    1    4    6   -0.000076    0.000000
   -7    3    1    5    6    0.000011    0.000000
   -7    3    1    6    6   -0.000004    0.000000
   -7    3    1    7    6    0.000004   -0.000000
   -7    3    1    8    6   -0.000004   -0.000000
   -7    3    1    1    7    0.000039   -0.000000
   -7    3    1    2    7    0.000047   -0.000000
   -7    3    1    3    7   -0.000106   -0.000000
   -7    3    1    4    7   -0.000076   -0.000000
   -7    3    1    5    7    0.000011    0.000000
   -7    3    1    6    7    0.000004   -0.000000
   -7    3    1    7    7   -0.000004    0.000000
   -7    3    1    8    7   -0.000004    0.000000
   -7    3    1    1    8    0.000037    0.000000
   -7    3    1    2    8    0.000124    0.000000
   -7    3    1    3    8    0.000124    0.000000
   -7    3    1    4    8   -0.000196    0.000000
   -7    3    1    5    8   -0.000011   -0.000000
   -7    3    1    6    8   -0.000004    0.000000
   -7    3    1    7    8   -0.000004    0.000000
   -7    3    1    8    8   -0.000004    0.000000
   -7    3    2    1    1   -0.000163   -0.000000
   -7    3    2    2    1    0.000107   -0.000000
   -7    3    2    3    1   -0.000000   -0.000000
   -7    3    2    4    1   -0.000000    0.000000
   -7    3    2    5    1   -0.000002   -0.000000
   -7    3    2    6    1    0.000046    0.000000
   -7    3    2    7    1    0.000063   -0.000000
   -7    3    2    8    1    0.000046   -0.000000
   -7    3    2    1    2   -0.000107    0.000000
   -7    3    2    2    2   -0.001782   -0.000000
   -7    3    2    3    2    0.000000   -0.000000
   -7    3    2    4    2    0.000000   -0.000000
   -7    3    2    5    2    0.000005    0.000000
   -7    3    2    6    2   -0.000115    0.000000
   -7    3    2    7    2   -0.000211   -0.000000
   -7    3    2    8    2    0.000034    0.000000
   -7    3    2    1    3    0.000000   -0.000000
   -7    3    2    2    3   -0.000000    0.000000
   -7    3    2    3    3   -0.001107   -0.000000
   -7    3    2    4    3   -0.000564   -0.000000
   -7    3    2    5    3   -0.000057    0.000000
   -7    3    2    6    3   -0.000028    0.000000
   -7    3    2    7    3   -0.000075    0.000000
   -7    3    2    8    3   -0.000028    0.000000
   -7    3    2    1    4   -0.000000   -0.000000
   -7    3    2    2    4   -0.000000    0.000000
   -7    3    2    3    4   -0.000564    0.000000
   -7    3    2    4    4   -0.001107    0.000000
   -7    3    2    5    4    0.000005    0.000000
   -7    3    2    6    4    0.000034   -0.000000
   -7    3    2    7    4   -0.000211   -0.000000
   -7    3    2    8    4   -0.000115   -0.000000
   -7    3    2    1    5   -0.000002   -0.000000
   -7    3    2    2    5   -0.000005   -0.000000
   -7    3    2    3    5   -0.000057   -0.000000
   -7    3    2    4    5    0.000005    0.000000
   -7    3    2    5    5   -0.000000    0.000000
   -7    3    2    6    5    0.000009   -0.000000
   -7    3    2    7    5   -0.000000    0.000000
   -7    3    2    8    5    0.000000   -0.000000
   -7    3    2    1    6   -0.000046    0.000000
   -7    3    2    2    6   -0.000115    0.000000
   -7    3    2    3    6    0.000028    0.000000
   -7    3    2    4    6   -0.000034   -0.000000
   -7    3    2    5    6   -0.000009   -0.000000
   -7    3    2    6    6    0.000007    0.000000
   -7    3    2    7    6   -0.000000    0.000000
   -7    3    2    8    6   -0.000000   -0.000000
   -7    3    2    1    7    0.000063   -0.000000
   -7    3    2    2    7    0.000211    0.000000
   -7    3    2    3    7   -0.000075    0.000000
   -7    3    2    4    7   -0.000211   -0.000000
   -7    3    2    5    7   -0.000000   -0.000000
   -7    3    2    6    7    0.000000    0.000000
   -7    3    2    7    7   -0.000012    0.000000
   -7    3    2    8    7   -0.000027   -0.000000
   -7    3    2    1    8    0.000046    0.000000
   -7    3    2    2    8   -0.000034   -0.000000
   -7    3    2    3    8   -0.000028    0.000000
   -7    3    2    4    8   -0.000115    0.000000
   -7    3    2    5    8   -0.000000    0.000000
   -7    3    2    6    8   -0.000000   -0.000000
   -7    3    2    7    8   -0.000027    0.000000
   -7    3    2    8    8   -0.000012   -0.000000
   -7    3    3    1    1   -0.000208    0.000000
   -7    3    3    2    1   -0.000380    0.000000
   -7    3    3    3    1    0.000380   -0.000000
   -7    3    3    4    1   -0.000380    0.000000
   -7    3    3    5    1    0.000003    0.000000
   -7    3    3    6    1   -0.000039    0.000000
   -7    3    3    7    1    0.000039   -0.000000
   -7    3    3    8    1    0.000037    0.000000
   -7    3    3    1    2    0.000380    0.000000
   -7    3    3    2    2   -0.001148    0.000000
   -7    3    3    3    2   -0.000403   -0.000000
   -7    3    3    4    2    0.000403   -0.000000
   -7    3    3    5    2    0.000035    0.000000
   -7    3    3    6    2   -0.000106    0.000000
   -7    3    3    7    2   -0.000047   -0.000000
   -7    3    3    8    2   -0.000124   -0.000000
   -7    3    3    1    3   -0.000380    0.000000
   -7    3    3    2    3   -0.000403    0.000000
   -7    3    3    3    3   -0.001148   -0.000000
   -7    3    3    4    3   -0.000403    0.000000
   -7    3    3    5    3   -0.000035    0.000000
   -7    3    3    6    3   -0.000047    0.000000
   -7    3    3    7    3   -0.000106   -0.000000
   -7    3    3    8    3    0.000124   -0.000000
   -7    3    3    1    4    0.000380   -0.000000
   -7    3    3    2    4    0.000403    0.000000
   -7    3    3    3    4   -0.000403    0.000000
   -7    3    3    4    4   -0.001148   -0.000000
   -7    3    3    5    4    0.000065   -0.000000
   -7    3    3    6    4    0.000076   -0.000000
   -7    3    3    7    4   -0.000076   -0.000000
   -7    3    3    8    4   -0.000196    0.000000
   -7    3    3    1    5   -0.000002    0.000000
   -7    3    3    2    5   -0.000005   -0.000000
   -7    3    3    3    5    0.000005   -0.000000
   -7    3    3    4    5   -0.000057    0.000000
   -7    3    3    5    5    0.000003    0.000000
   -7    3    3    6    5   -0.000011    0.000000
   -7    3    3    7    5    0.000011   -0.000000
   -7    3    3    8    5   -0.000011   -0.000000
   -7    3    3    1    6   -0.000046    0.000000
   -7    3    3    2    6   -0.000115   -0.000000
   -7    3    3    3    6   -0.000034   -0.000000
   -7    3    3    4    6    0.000028   -0.000000
   -7    3    3    5    6    0.000011    0.000000
   -7    3    3    6    6   -0.000004   -0.000000
   -7    3    3    7    6   -0.000004   -0.000000
   -7    3    3    8    6    0.000004    0.000000
   -7    3    3    1    7    0.000046   -0.000000
   -7    3    3    2    7   -0.000034    0.000000
   -7    3    3    3    7   -0.000115    0.000000
   -7    3    3    4    7   -0.000028    0.000000
   -7    3    3    5    7   -0.000011    0.000000
   -7    3    3    6    7   -0.000004    0.000000
   -7    3    3    7    7   -0.000004    0.000000
   -7    3    3    8    7   -0.000004    0.000000
   -7    3    3    1    8    0.000063    0.000000
   -7    3    3    2    8    0.000211   -0.000000
   -7    3    3    3    8   -0.000211    0.000000
   -7    3    3    4    8   -0.000075    0.000000
   -7    3    3    5    8    0.000011    0.000000
   -7    3    3    6    8    0.000004   -0.000000
   -7    3    3    7    8   -0.000004   -0.000000
   -7    3    3    8    8   -0.000004    0.000000
   -6   -2    4    1    1    0.000348   -0.000000
   -6   -2    4    2    1   -0.000412   -0.000000
   -6   -2    4    3    1   -0.000412   -0.000000
   -6   -2    4    4    1   -0.000412   -0.000000
   -6   -2    4    5    1    0.000029    0.000000
   -6   -2    4    6    1    0.000042   -0.000000
   -6   -2    4    7    1    0.000042    0.000000
   -6   -2    4    8    1   -0.000059   -0.000000
   -6   -2    4    1    2    0.000412   -0.000000
   -6   -2    4    2    2    0.002008    0.000000
   -6   -2    4    3    2   -0.000436   -0.000000
   -6   -2    4    4    2   -0.000436    0.000000
   -6   -2    4    5    2    0.000072   -0.000000
   -6   -2    4    6    2   -0.000069   -0.000000
   -6   -2    4    7    2   -0.000135    0.000000
   -6   -2    4    8    2   -0.000110    0.000000
   -6   -2    4    1    3    0.000412    0.000000
   -6   -2    4    2    3   -0.000436    0.000000
   -6   -2    4    3    3    0.002008    0.000000
   -6   -2    4    4    3   -0.000436   -0.000000
   -6   -2    4    5    3    0.000072    0.000000
   -6   -2    4    6    3   -0.000135   -0.000000
   -6   -2    4    7    3   -0.000069    0.000000
   -6   -2    4    8    3   -0.000110    0.000000
   -6   -2    4    1    4    0.000412    0.000000
   -6   -2    4    2    4   -0.000436   -0.000000
   -6   -2    4    3    4   -0.000436    0.000000
   -6   -2    4    4    4    0.002008    0.000000
   -6   -2    4    5    4    0.000099   -0.000000
   -6   -2    4    6    4    0.000070    0.000000
   -6   -2    4    7    4    0.000070    0.000000
   -6   -2    4    8    4    0.000104    0.000000
   -6   -2    4    1    5    0.000000   -0.000000
   -6   -2    4    2    5   -0.000029   -0.000000
   -6   -2    4    3    5   -0.000029    0.000000
   -6   -2    4    4    5   -0.000071   -0.000000
   -6   -2    4    5    5   -0.000005   -0.000000
   -6   -2    4    6    5   -0.000007   -0.000000
   -6   -2    4    7    5   -0.000007    0.000000
   -6   -2    4    8    5   -0.000007   -0.000000
   -6   -2    4    1    6    0.000042    0.000000
   -6   -2    4    2    6   -0.000177    0.000000
   -6   -2    4    3    6   -0.000025   -0.000000
   -6   -2    4    4    6   -0.000034   -0.000000
   -6   -2    4    5    6    0.000007    0.000000
   -6   -2    4    6    6    0.000053   -0.000000
   -6   -2    4    7    6    0.000015    0.000000
   -6   -2    4    8    6    0.000015   -0.000000
   -6   -2    4    1    7    0.000042   -0.000000
   -6   -2    4    2    7   -0.000025   -0.000000
   -6   -2    4    3    7   -0.000177   -0.000000
   -6   -2    4    4    7   -0.000034   -0.000000
   -6   -2    4    5    7    0.000007   -0.000000
   -6   -2    4    6    7    0.000015   -0.000000
   -6   -2    4    7    7    0.000053   -0.000000
   -6   -2    4    8    7    0.000015    0.000000
   -6   -2    4    1    8    0.000002   -0.000000
   -6   -2    4    2    8    0.000040    0.000000
   -6   -2    4    3    8    0.000040   -0.000000
   -6   -2    4    4    8    0.000156   -0.000000
   -6   -2    4    5    8    0.000007    0.000000
   -6   -2    4    6    8    0.000015   -0.000000
   -6   -2    4    7    8    0.000015    0.000000
   -6   -2    4    8    8    0.000053    0.000000
   -6   -1    3    1    1    0.000239   -0.000000
   -6   -1    3    2    1   -0.000426    0.000000
   -6   -1    3    3    1   -0.000426   -0.000000
   -6   -1    3    4    1   -0.000054   -0.000000
   -6   -1    3    5    1   -0.000048    0.000000
   -6   -1    3    6    1   -0.000022    0.000000
   -6   -1    3    7    1   -0.000022   -0.000000
   -6   -1    3    8    1   -0.000022   -0.000000
   -6   -1    3    1    2    0.000426   -0.000000
   -6   -1    3    2    2    0.001357   -0.000000
   -6   -1    3    3    2   -0.000707   -0.000000
   -6   -1    3    4    2   -0.000343   -0.000000
   -6   -1    3    5    2    0.000028    0.000000
   -6   -1    3    6    2   -0.000058   -0.000000
   -6   -1    3    7    2   -0.000122    0.000000
   -6   -1    3    8    2   -0.000122    0.000000
   -6   -1    3    1    3    0.000426    0.000000
   -6   -1    3    2    3   -0.000707    0.000000
   -6   -1    3    3    3    0.001357    0.000000
   -6   -1    3    4    3   -0.000343   -0.000000
   -6   -1    3    5    3    0.000028    0.000000
   -6   -1    3    6    3   -0.000122   -0.000000
   -6   -1    3    7    3   -0.000058   -0.000000
   -6   -1    3    8    3   -0.000122   -0.000000
   -6   -1    3    1    4    0.000054    0.000000
   -6   -1    3    2    4   -0.000343    0.000000
   -6   -1    3    3    4   -0.000343   -0.000000
   -6   -1    3    4    4    0.000513    0.000000
   -6   -1    3    5    4    0.000028    0.000000
   -6   -1    3    6    4   -0.000122    0.000000
   -6   -1    3    7    4   -0.000122    0.000000
   -6   -1    3    8    4   -0.000058    0.000000
   -6   -1    3    1    5   -0.000059   -0.000000
   -6   -1    3    2    5   -0.000052   -0.000000
   -6   -1    3    3    5   -0.000052    0.000000
   -6   -1    3    4    5   -0.000024    0.000000
   -6   -1    3    5    5    0.000003    0.000000
   -6   -1    3    6    5   -0.000017   -0.000000
   -6   -1    3    7    5   -0.000017   -0.000000
   -6   -1    3    8    5    0.000011    0.000000
   -6   -1    3    1    6    0.000037    0.000000
   -6   -1    3    2    6   -0.000098    0.000000
   -6   -1    3    3    6   -0.000124   -0.000000
   -6   -1    3    4    6   -0.000039   -0.000000
   -6   -1    3    5    6    0.000017    0.000000
   -6   -1    3    6    6   -0.000010   -0.000000
   -6   -1    3    7    6   -0.000006   -0.000000
   -6   -1    3    8    6   -0.000005    0.000000
   -6   -1    3    1    7    0.000037   -0.000000
   -6   -1    3    2    7   -0.000124    0.000000
   -6   -1    3    3    7   -0.000098   -0.000000
   -6   -1    3    4    7   -0.000039   -0.000000
   -6   -1    3    5    7    0.000017   -0.000000
   -6   -1    3    6    7   -0.000006   -0.000000
   -6   -1    3    7    7   -0.000010   -0.000000
   -6   -1    3    8    7   -0.000005    0.000000
   -6   -1    3    1    8   -0.000002   -0.000000
   -6   -1    3    2    8    0.000027    0.000000
   -6   -1    3    3    8    0.000027   -0.000000
   -6   -1    3    4    8   -0.000197   -0.000000
   -6   -1    3    5    8   -0.000011    0.000000
   -6   -1    3    6    8   -0.000005    0.000000
   -6   -1    3    7    8   -0.000005   -0.000000
   -6   -1    3    8    8    0.000000   -0.000000
   -6   -1    4    1    1    0.000239   -0.000000
   -6   -1    4    2    1   -0.000426   -0.000000
   -6   -1    4    3    1   -0.000054   -0.000000
   -6   -1    4    4    1   -0.000426    0.000000
   -6   -1    4    5    1    0.000029   -0.000000
   -6   -1    4    6    1    0.000038    0.000000
   -6   -1    4    7    1    0.000167   -0.000000
   -6   -1    4    8    1   -0.000013   -0.000000
   -6   -1    4    1    2    0.000426   -0.000000
   -6   -1    4    2    2    0.001357    0.000000
   -6   -1    4    3    2   -0.000343   -0.000000
   -6   -1    4    4    2   -0.000707    0.000000
   -6   -1    4    5    2    0.000030    0.000000
   -6   -1    4    6    2   -0.000271    0.000000
   -6   -1    4    7    2   -0.000311    0.000000
   -6   -1    4    8    2   -0.000052   -0.000000
   -6   -1    4    1    3    0.000054    0.000000
   -6   -1    4    2    3   -0.000343    0.000000
   -6   -1    4    3    3    0.000513    0.000000
   -6   -1    4    4    3   -0.000343   -0.000000
   -6   -1    4    5    3   -0.000014   -0.000000
   -6   -1    4    6    3    0.000002   -0.000000
   -6   -1    4    7    3   -0.000292   -0.000000
   -6   -1    4    8    3   -0.000003    0.000000
   -6   -1    4    1    4    0.000426    0.000000
   -6   -1    4    2    4   -0.000707    0.000000
   -6   -1    4    3    4   -0.000343   -0.000000
   -6   -1    4    4    4    0.001357    0.000000
   -6   -1    4    5    4    0.000104   -0.000000
   -6   -1    4    6    4   -0.000022    0.000000
   -6   -1    4    7    4    0.000120    0.000000
   -6   -1    4    8    4    0.000025    0.000000
   -6   -1    4    1    5    0.000029   -0.000000
   -6   -1    4    2    5   -0.000099   -0.000000
   -6   -1    4    3    5   -0.000072   -0.000000
   -6   -1    4    4    5   -0.000072   -0.000000
   -6   -1    4    5    5    0.000003    0.000000
   -6   -1    4    6    5   -0.000017    0.000000
   -6   -1    4    7    5    0.000011   -0.000000
   -6   -1    4    8    5   -0.000017   -0.000000
   -6   -1    4    1    6    0.000059    0.000000
   -6   -1    4    2    6    0.000104   -0.000000
   -6   -1    4    3    6   -0.000110   -0.000000
   -6   -1    4    4    6   -0.000110   -0.000000
   -6   -1    4    5    6    0.000017   -0.000000
   -6   -1    4    6    6   -0.000010    0.000000
   -6   -1    4    7    6   -0.000005    0.000000
   -6   -1    4    8    6   -0.000006   -0.000000
   -6   -1    4    1    7   -0.000042    0.000000
   -6   -1    4    2    7    0.000070    0.000000
   -6   -1    4    3    7   -0.000069   -0.000000
   -6   -1    4    4    7   -0.000135   -0.000000
   -6   -1    4    5    7   -0.000011   -0.000000
   -6   -1    4    6    7   -0.000005    0.000000
   -6   -1    4    7    7    0.000000   -0.000000
   -6   -1    4    8    7   -0.000005   -0.000000
   -6   -1    4    1    8   -0.000042    0.000000
   -6   -1    4    2    8    0.000070   -0.000000
   -6   -1    4    3    8   -0.000135   -0.000000
   -6   -1    4    4    8   -0.000069   -0.000000
   -6   -1    4    5    8    0.000017   -0.000000
   -6   -1    4    6    8   -0.000006    0.000000
   -6   -1    4    7    8   -0.000005    0.000000
   -6   -1    4    8    8   -0.000010    0.000000
   -6    0    2    1    1    0.000147   -0.000000
   -6    0    2    2    1   -0.000148   -0.000000
   -6    0    2    3    1   -0.000148   -0.000000
   -6    0    2    4    1    0.000022   -0.000000
   -6    0    2    5    1    0.000003   -0.000000
   -6    0    2    6    1    0.000039   -0.000000
   -6    0    2    7    1    0.000039   -0.000000
   -6    0    2    8    1   -0.000037   -0.000000
   -6    0    2    1    2    0.000148    0.000000
   -6    0    2    2    2    0.000759   -0.000000
   -6    0    2    3    2   -0.001133    0.000000
   -6    0    2    4    2   -0.000131   -0.000000
   -6    0    2    5    2   -0.000035   -0.000000
   -6    0    2    6    2   -0.000106   -0.000000
   -6    0    2    7    2    0.000047    0.000000
   -6    0    2    8    2   -0.000124    0.000000
   -6    0    2    1    3    0.000148    0.000000
   -6    0    2    2    3   -0.001133    0.000000
   -6    0    2    3    3    0.000759   -0.000000
   -6    0    2    4    3   -0.000131    0.000000
   -6    0    2    5    3   -0.000035    0.000000
   -6    0    2    6    3    0.000047   -0.000000
   -6    0    2    7    3   -0.000106   -0.000000
   -6    0    2    8    3   -0.000124    0.000000
   -6    0    2    1    4   -0.000022    0.000000
   -6    0    2    2    4   -0.000131    0.000000
   -6    0    2    3    4   -0.000131   -0.000000
   -6    0    2    4    4   -0.001678    0.000000
   -6    0    2    5    4   -0.000065    0.000000
   -6    0    2    6    4    0.000076   -0.000000
   -6    0    2    7    4    0.000076    0.000000
   -6    0    2    8    4   -0.000196    0.000000
   -6    0    2    1    5   -0.000158   -0.000000
   -6    0    2    2    5   -0.000046   -0.000000
   -6    0    2    3    5   -0.000046    0.000000
   -6    0    2    4    5    0.000043    0.000000
   -6    0    2    5    5    0.000009   -0.000000
   -6    0    2    6    5   -0.000001   -0.000000
   -6    0    2    7    5   -0.000001   -0.000000
   -6    0    2    8    5    0.000041    0.000000
   -6    0    2    1    6   -0.000009    0.000000
   -6    0    2    2    6    0.000186   -0.000000
   -6    0    2    3    6   -0.000166    0.000000
   -6    0    2    4    6    0.000031   -0.000000
   -6    0    2    5    6    0.000001    0.000000
   -6    0    2    6    6   -0.000070    0.000000
   -6    0    2    7    6    0.000018   -0.000000
   -6    0    2    8    6   -0.000011   -0.000000
   -6    0    2    1    7   -0.000009   -0.000000
   -6    0    2    2    7   -0.000166   -0.000000
   -6    0    2    3    7    0.000186   -0.000000
   -6    0    2    4    7    0.000031   -0.000000
   -6    0    2    5    7    0.000001    0.000000
   -6    0    2    6    7    0.000018   -0.000000
   -6    0    2    7    7   -0.000070   -0.000000
   -6    0    2    8    7   -0.000011    0.000000
   -6    0    2    1    8   -0.000076    0.000000
   -6    0    2    2    8   -0.000070   -0.000000
   -6    0    2    3    8   -0.000070   -0.000000
   -6    0    2    4    8   -0.000214   -0.000000
   -6    0    2    5    8   -0.000041   -0.000000
   -6    0    2    6    8   -0.000011   -0.000000
   -6    0    2    7    8   -0.000011   -0.000000
   -6    0    2    8    8    0.000067   -0.000000
   -6    0    3    1    1   -0.000064   -0.000000
   -6    0    3    2    1   -0.000158   -0.000000
   -6    0    3    3    1    0.000266   -0.000000
   -6    0    3    4    1    0.000266    0.000000
   -6    0    3    5    1    0.000003   -0.000000
   -6    0    3    6    1    0.000039    0.000000
   -6    0    3    7    1   -0.000037   -0.000000
   -6    0    3    8    1    0.000039   -0.000000
   -6    0    3    1    2    0.000158   -0.000000
   -6    0    3    2    2    0.000627   -0.000000
   -6    0    3    3    2   -0.000313   -0.000000
   -6    0    3    4    2   -0.000313   -0.000000
   -6    0    3    5    2   -0.000035    0.000000
   -6    0    3    6    2   -0.000106    0.000000
   -6    0    3    7    2   -0.000124    0.000000
   -6    0    3    8    2    0.000047   -0.000000
   -6    0    3    1    3   -0.000266    0.000000
   -6    0    3    2    3   -0.000313    0.000000
   -6    0    3    3    3   -0.000530    0.000000
   -6    0    3    4    3    0.000001    0.000000
   -6    0    3    5    3   -0.000065   -0.000000
   -6    0    3    6    3    0.000076   -0.000000
   -6    0    3    7    3   -0.000196   -0.000000
   -6    0    3    8    3    0.000076    0.000000
   -6    0    3    1    4   -0.000266    0.000000
   -6    0    3    2    4   -0.000313    0.000000
   -6    0    3    3    4    0.000001   -0.000000
   -6    0    3    4    4   -0.000530    0.000000
   -6    0    3    5    4   -0.000035   -0.000000
   -6    0    3    6    4    0.000047    0.000000
   -6    0    3    7    4   -0.000124    0.000000
   -6    0    3    8    4   -0.000106    0.000000
   -6    0    3    1    5    0.000029    0.000000
   -6    0    3    2    5   -0.000104   -0.000000
   -6    0    3    3    5   -0.000030   -0.000000
   -6    0    3    4    5    0.000014    0.000000
   -6    0    3    5    5   -0.000005   -0.000000
   -6    0    3    6    5   -0.000003   -0.000000
   -6    0    3    7    5   -0.000001   -0.000000
   -6    0    3    8    5   -0.000001   -0.000000
   -6    0    3    1    6    0.000013    0.000000
   -6    0    3    2    6    0.000025   -0.000000
   -6    0    3    3    6   -0.000052   -0.000000
   -6    0    3    4    6   -0.000003   -0.000000
   -6    0    3    5    6    0.000003    0.000000
   -6    0    3    6    6   -0.000023    0.000000
   -6    0    3    7    6   -0.000002   -0.000000
   -6    0    3    8    6   -0.000002   -0.000000
   -6    0    3    1    7   -0.000038   -0.000000
   -6    0    3    2    7   -0.000022    0.000000
   -6    0    3    3    7   -0.000271   -0.000000
   -6    0    3    4    7    0.000002   -0.000000
   -6    0    3    5    7    0.000001    0.000000
   -6    0    3    6    7   -0.000002    0.000000
   -6    0    3    7    7    0.000026   -0.000000
   -6    0    3    8    7    0.000017   -0.000000
   -6    0    3    1    8   -0.000167   -0.000000
   -6    0    3    2    8    0.000120    0.000000
   -6    0    3    3    8   -0.000311   -0.000000
   -6    0    3    4    8   -0.000292   -0.000000
   -6    0    3    5    8    0.000001   -0.000000
   -6    0    3    6    8   -0.000002    0.000000
   -6    0    3    7    8    0.000017    0.000000
   -6    0    3    8    8    0.000026    0.000000
   -6    0    4    1    1    0.000147   -0.000000
   -6    0    4    2    1   -0.000148    0.000000
   -6    0    4    3    1    0.000022   -0.000000
   -6    0    4    4    1   -0.000148    0.000000
   -6    0    4    5    1    0.000026   -0.000000
   -6    0    4    6    1    0.000111    0.000000
   -6    0    4    7    1    0.000167   -0.000000
   -6    0    4    8    1   -0.000002   -0.000000
   -6    0    4    1    2    0.000148   -0.000000
   -6    0    4    2    2    0.000759   -0.000000
   -6    0    4    3    2   -0.000131   -0.000000
   -6    0    4    4    2   -0.001133    0.000000
   -6    0    4    5    2   -0.000014   -0.000000
   -6    0    4    6    2   -0.000207    0.000000
   -6    0    4    7    2   -0.000244    0.000000
   -6    0    4    8    2    0.000112   -0.000000
   -6    0    4    1    3   -0.000022    0.000000
   -6    0    4    2    3   -0.000131   -0.000000
   -6    0    4    3    3   -0.001678    0.000000
   -6    0    4    4    3   -0.000131   -0.000000
   -6    0    4    5    3   -0.000014   -0.000000
   -6    0    4    6    3    0.000047   -0.000000
   -6    0    4    7    3   -0.000069   -0.000000
   -6    0    4    8    3    0.000088    0.000000
   -6    0    4    1    4    0.000148   -0.000000
   -6    0    4    2    4   -0.001133    0.000000
   -6    0    4    3    4   -0.000131   -0.000000
   -6    0    4    4    4    0.000759    0.000000
   -6    0    4    5    4    0.000085   -0.000000
   -6    0    4    6    4    0.000128    0.000000
   -6    0    4    7    4    0.000091    0.000000
   -6    0    4    8    4   -0.000082    0.000000
   -6    0    4    1    5    0.000029    0.000000
   -6    0    4    2    5   -0.000104   -0.000000
   -6    0    4    3    5    0.000014   -0.000000
   -6    0    4    4    5   -0.000030    0.000000
   -6    0    4    5    5    0.000009   -0.000000
   -6    0    4    6    5   -0.000001    0.000000
   -6    0    4    7    5    0.000041   -0.000000
   -6    0    4    8    5   -0.000001   -0.000000
   -6    0    4    1    6    0.000013    0.000000
   -6    0    4    2    6    0.000025   -0.000000
   -6    0    4    3    6   -0.000003   -0.000000
   -6    0    4    4    6   -0.000052   -0.000000
   -6    0    4    5    6    0.000001    0.000000
   -6    0    4    6    6   -0.000070    0.000000
   -6    0    4    7    6   -0.000011   -0.000000
   -6    0    4    8    6    0.000018   -0.000000
   -6    0    4    1    7   -0.000167    0.000000
   -6    0    4    2    7    0.000120   -0.000000
   -6    0    4    3    7   -0.000292   -0.000000
   -6    0    4    4    7   -0.000311    0.000000
   -6    0    4    5    7   -0.000041   -0.000000
   -6    0    4    6    7   -0.000011   -0.000000
   -6    0    4    7    7    0.000067   -0.000000
   -6    0    4    8    7   -0.000011    0.000000
   -6    0    4    1    8   -0.000038   -0.000000
   -6    0    4    2    8   -0.000022    0.000000
   -6    0    4    3    8    0.000002    0.000000
   -6    0    4    4    8   -0.000271   -0.000000
   -6    0    4    5    8    0.000001   -0.000000
   -6    0    4    6    8    0.000018    0.000000
   -6    0    4    7    8   -0.000011    0.000000
   -6    0    4    8    8   -0.000070   -0.000000
   -6    1    1    1    1    0.000188   -0.000000
   -6    1    1    2    1    0.000000   -0.000000
   -6    1    1    3    1   -0.000000   -0.000000
   -6    1    1    4    1   -0.000256   -0.000000
   -6    1    1    5    1    0.000029   -0.000000
   -6    1    1    6    1    0.000000   -0.000000
   -6    1    1    7    1    0.000000   -0.000000
   -6    1    1    8    1   -0.000066   -0.000000
   -6    1    1    1    2    0.000000    0.000000
   -6    1    1    2    2    0.000957   -0.000000
   -6    1    1    3    2   -0.001415    0.000000
   -6    1    1    4    2    0.000000   -0.000000
   -6    1    1    5    2   -0.000000    0.000000
   -6    1    1    6    2   -0.000094   -0.000000
   -6    1    1    7    2    0.000264    0.000000
   -6    1    1    8    2    0.000000   -0.000000
   -6    1    1    1    3   -0.000000    0.000000
   -6    1    1    2    3   -0.001415    0.000000
   -6    1    1    3    3    0.000957   -0.000000
   -6    1    1    4    3    0.000000   -0.000000
   -6    1    1    5    3   -0.000000    0.000000
   -6    1    1    6    3    0.000264   -0.000000
   -6    1    1    7    3   -0.000094    0.000000
   -6    1    1    8    3   -0.000000    0.000000
   -6    1    1    1    4    0.000256    0.000000
   -6    1    1    2    4    0.000000    0.000000
   -6    1    1    3    4   -0.000000   -0.000000
   -6    1    1    4    4   -0.001280    0.000000
   -6    1    1    5    4    0.000020    0.000000
   -6    1    1    6    4   -0.000000    0.000000
   -6    1    1    7    4    0.000000    0.000000
   -6    1    1    8    4   -0.000178    0.000000
   -6    1    1    1    5   -0.000128   -0.000000
   -6    1    1    2    5    0.000000   -0.000000
   -6    1    1    3    5   -0.000000    0.000000
   -6    1    1    4    5    0.000012   -0.000000
   -6    1    1    5    5    0.000007    0.000000
   -6    1    1    6    5   -0.000000   -0.000000
   -6    1    1    7    5   -0.000000    0.000000
   -6    1    1    8    5    0.000030    0.000000
   -6    1    1    1    6    0.000000    0.000000
   -6    1    1    2    6    0.000283   -0.000000
   -6    1    1    3    6   -0.000146    0.000000
   -6    1    1    4    6   -0.000000   -0.000000
   -6    1    1    5    6    0.000000   -0.000000
   -6    1    1    6    6   -0.000046   -0.000000
   -6    1    1    7    6    0.000039    0.000000
   -6    1    1    8    6    0.000000   -0.000000
   -6    1    1    1    7   -0.000000   -0.000000
   -6    1    1    2    7   -0.000146   -0.000000
   -6    1    1    3    7    0.000283   -0.000000
   -6    1    1    4    7    0.000000   -0.000000
   -6    1    1    5    7   -0.000000    0.000000
   -6    1    1    6    7    0.000039    0.000000
   -6    1    1    7    7   -0.000046    0.000000
   -6    1    1    8    7    0.000000    0.000000
   -6    1    1    1    8   -0.000150   -0.000000
   -6    1    1    2    8    0.000000    0.000000
   -6    1    1    3    8    0.000000    0.000000
   -6    1    1    4    8   -0.000188    0.000000
   -6    1    1    5    8   -0.000030   -0.000000
   -6    1    1    6    8   -0.000000   -0.000000
   -6    1    1    7    8    0.000000    0.000000
   -6    1    1    8    8    0.000028    0.000000
   -6    1    2    1    1    0.000096   -0.000000
   -6    1    2    2    1    0.000167   -0.000000
   -6    1    2    3    1    0.000174   -0.000000
   -6    1    2    4    1   -0.000156    0.000000
   -6    1    2    5    1   -0.000002   -0.000000
   -6    1    2    6    1    0.000063    0.000000
   -6    1    2    7    1   -0.000046   -0.000000
   -6    1    2    8    1   -0.000046   -0.000000
   -6    1    2    1    2   -0.000167    0.000000
   -6    1    2    2    2    0.000126   -0.000000
   -6    1    2    3    2   -0.000160   -0.000000
   -6    1    2    4    2    0.000193   -0.000000
   -6    1    2    5    2   -0.000057    0.000000
   -6    1    2    6    2   -0.000075    0.000000
   -6    1    2    7    2    0.000028    0.000000
   -6    1    2    8    2    0.000028   -0.000000
   -6    1    2    1    3   -0.000174    0.000000
   -6    1    2    2    3   -0.000160    0.000000
   -6    1    2    3    3   -0.000103   -0.000000
   -6    1    2    4    3    0.000012   -0.000000
   -6    1    2    5    3   -0.000005    0.000000
   -6    1    2    6    3    0.000211   -0.000000
   -6    1    2    7    3   -0.000115    0.000000
   -6    1    2    8    3    0.000034    0.000000
   -6    1    2    1    4    0.000156    0.000000
   -6    1    2    2    4    0.000193    0.000000
   -6    1    2    3    4    0.000012    0.000000
   -6    1    2    4    4   -0.000905    0.000000
   -6    1    2    5    4   -0.000005    0.000000
   -6    1    2    6    4    0.000211   -0.000000
   -6    1    2    7    4    0.000034    0.000000
   -6    1    2    8    4   -0.000115    0.000000
   -6    1    2    1    5    0.000026    0.000000
   -6    1    2    2    5   -0.000085   -0.000000
   -6    1    2    3    5    0.000014   -0.000000
   -6    1    2    4    5    0.000014    0.000000
   -6    1    2    5    5    0.000003    0.000000
   -6    1    2    6    5   -0.000001    0.000000
   -6    1    2    7    5    0.000013   -0.000000
   -6    1    2    8    5   -0.000010    0.000000
   -6    1    2    1    6    0.000002    0.000000
   -6    1    2    2    6   -0.000082    0.000000
   -6    1    2    3    6    0.000112    0.000000
   -6    1    2    4    6    0.000088   -0.000000
   -6    1    2    5    6    0.000001   -0.000000
   -6    1    2    6    6   -0.000023   -0.000000
   -6    1    2    7    6    0.000033    0.000000
   -6    1    2    8    6   -0.000019   -0.000000
   -6    1    2    1    7   -0.000111    0.000000
   -6    1    2    2    7    0.000128   -0.000000
   -6    1    2    3    7   -0.000207   -0.000000
   -6    1    2    4    7    0.000047   -0.000000
   -6    1    2    5    7   -0.000013   -0.000000
   -6    1    2    6    7    0.000033    0.000000
   -6    1    2    7    7   -0.000032   -0.000000
   -6    1    2    8    7    0.000024    0.000000
   -6    1    2    1    8   -0.000167   -0.000000
   -6    1    2    2    8    0.000091    0.000000
   -6    1    2    3    8   -0.000244   -0.000000
   -6    1    2    4    8   -0.000069   -0.000000
   -6    1    2    5    8    0.000010    0.000000
   -6    1    2    6    8   -0.000019   -0.000000
   -6    1    2    7    8    0.000024    0.000000
   -6    1    2    8    8    0.000085    0.000000
   -6    1    3    1    1    0.000096    0.000000
   -6    1    3    2    1    0.000167   -0.000000
   -6    1    3    3    1   -0.000156   -0.000000
   -6    1    3    4    1    0.000174    0.000000
   -6    1    3    5    1    0.000029    0.000000
   -6    1    3    6    1    0.000000    0.000000
   -6    1    3    7    1   -0.000066   -0.000000
   -6    1    3    8    1    0.000000   -0.000000
   -6    1    3    1    2   -0.000167   -0.000000
   -6    1    3    2    2    0.000126   -0.000000
   -6    1    3    3    2    0.000193   -0.000000
   -6    1    3    4    2   -0.000160   -0.000000
   -6    1    3    5    2   -0.000000   -0.000000
   -6    1    3    6    2   -0.000094    0.000000
   -6    1    3    7    2   -0.000000   -0.000000
   -6    1    3    8    2    0.000264   -0.000000
   -6    1    3    1    3    0.000156    0.000000
   -6    1    3    2    3    0.000193    0.000000
   -6    1    3    3    3   -0.000905   -0.000000
   -6    1    3    4    3    0.000012   -0.000000
   -6    1    3    5    3    0.000020   -0.000000
   -6    1    3    6    3    0.000000   -0.000000
   -6    1    3    7    3   -0.000178    0.000000
   -6    1    3    8    3    0.000000    0.000000
   -6    1    3    1    4   -0.000174   -0.000000
   -6    1    3    2    4   -0.000160    0.000000
   -6    1    3    3    4    0.000012    0.000000
   -6    1    3    4    4   -0.000103    0.000000
   -6    1    3    5    4   -0.000000    0.000000
   -6    1    3    6    4    0.000264   -0.000000
   -6    1    3    7    4    0.000000   -0.000000
   -6    1    3    8    4   -0.000094    0.000000
   -6    1    3    1    5    0.000011    0.000000
   -6    1    3    2    5   -0.000038   -0.000000
   -6    1    3    3    5    0.000049   -0.000000
   -6    1    3    4    5    0.000049    0.000000
   -6    1    3    5    5    0.000003    0.000000
   -6    1    3    6    5   -0.000001   -0.000000
   -6    1    3    7    5   -0.000010    0.000000
   -6    1    3    8    5    0.000013    0.000000
   -6    1    3    1    6   -0.000004    0.000000
   -6    1    3    2    6   -0.000043   -0.000000
   -6    1    3    3    6    0.000225    0.000000
   -6    1    3    4    6    0.000225   -0.000000
   -6    1    3    5    6    0.000001    0.000000
   -6    1    3    6    6   -0.000023    0.000000
   -6    1    3    7    6   -0.000019    0.000000
   -6    1    3    8    6    0.000033   -0.000000
   -6    1    3    1    7   -0.000044    0.000000
   -6    1    3    2    7   -0.000107   -0.000000
   -6    1    3    3    7   -0.000217   -0.000000
   -6    1    3    4    7    0.000048    0.000000
   -6    1    3    5    7    0.000010   -0.000000
   -6    1    3    6    7   -0.000019    0.000000
   -6    1    3    7    7    0.000085   -0.000000
   -6    1    3    8    7    0.000024    0.000000
   -6    1    3    1    8   -0.000044    0.000000
   -6    1    3    2    8   -0.000107    0.000000
   -6    1    3    3    8    0.000048    0.000000
   -6    1    3    4    8   -0.000217   -0.000000
   -6    1    3    5    8   -0.000013    0.000000
   -6    1    3    6    8    0.000033    0.000000
   -6    1    3    7    8    0.000024    0.000000
   -6    1    3    8    8   -0.000032    0.000000
   -6    1    4    1    1    0.000188    0.000000
   -6    1    4    2    1   -0.000000    0.000000
   -6    1    4    3    1   -0.000256    0.000000
   -6    1    4    4    1   -0.000000    0.000000
   -6    1    4    5    1    0.000026   -0.000000
   -6    1    4    6    1    0.000002   -0.000000
   -6    1    4    7    1    0.000167   -0.000000
   -6    1    4    8    1   -0.000111   -0.000000
   -6    1    4    1    2   -0.000000   -0.000000
   -6    1    4    2    2    0.000957   -0.000000
   -6    1    4    3    2    0.000000    0.000000
   -6    1    4    4    2   -0.001415    0.000000
   -6    1    4    5    2   -0.000085   -0.000000
   -6    1    4    6    2   -0.000082    0.000000
   -6    1    4    7    2   -0.000091   -0.000000
   -6    1    4    8    2    0.000128   -0.000000
   -6    1    4    1    3    0.000256    0.000000
   -6    1    4    2    3   -0.000000    0.000000
   -6    1    4    3    3   -0.001280   -0.000000
   -6    1    4    4    3   -0.000000    0.000000
   -6    1    4    5    3   -0.000014   -0.000000
   -6    1    4    6    3   -0.000088   -0.000000
   -6    1    4    7    3   -0.000069   -0.000000
   -6    1    4    8    3   -0.000047    0.000000
   -6    1    4    1    4   -0.000000   -0.000000
   -6    1    4    2    4   -0.001415    0.000000
   -6    1    4    3    4    0.000000   -0.000000
   -6    1    4    4    4    0.000957    0.000000
   -6    1    4    5    4    0.000014   -0.000000
   -6    1    4    6    4    0.000112   -0.000000
   -6    1    4    7    4    0.000244   -0.000000
   -6    1    4    8    4   -0.000207   -0.000000
   -6    1    4    1    5    0.000026   -0.000000
   -6    1    4    2    5   -0.000085    0.000000
   -6    1    4    3    5    0.000014    0.000000
   -6    1    4    4    5    0.000014    0.000000
   -6    1    4    5    5    0.000007   -0.000000
   -6    1    4    6    5    0.000000   -0.000000
   -6    1    4    7    5    0.000030   -0.000000
   -6    1    4    8    5   -0.000000    0.000000
   -6    1    4    1    6    0.000002   -0.000000
   -6    1    4    2    6   -0.000082   -0.000000
   -6    1    4    3    6    0.000088    0.000000
   -6    1    4    4    6    0.000112   -0.000000
   -6    1    4    5    6   -0.000000    0.000000
   -6    1    4    6    6   -0.000046   -0.000000
   -6    1    4    7    6    0.000000   -0.000000
   -6    1    4    8    6    0.000039   -0.000000
   -6    1    4    1    7   -0.000167    0.000000
   -6    1    4    2    7    0.000091   -0.000000
   -6    1    4    3    7   -0.000069    0.000000
   -6    1    4    4    7   -0.000244    0.000000
   -6    1    4    5    7   -0.000030   -0.000000
   -6    1    4    6    7    0.000000    0.000000
   -6    1    4    7    7    0.000028    0.000000
   -6    1    4    8    7    0.000000   -0.000000
   -6    1    4    1    8   -0.000111   -0.000000
   -6    1    4    2    8    0.000128    0.000000
   -6    1    4    3    8    0.000047    0.000000
   -6    1    4    4    8   -0.000207   -0.000000
   -6    1    4    5    8   -0.000000    0.000000
   -6    1    4    6    8    0.000039   -0.000000
   -6    1    4    7    8   -0.000000    0.000000
   -6    1    4    8    8   -0.000046   -0.000000
   -6    2    0    1    1    0.000147   -0.000000
   -6    2    0    2    1    0.000148   -0.000000
   -6    2    0    3    1    0.000148   -0.000000
   -6    2    0    4    1    0.000022   -0.000000
   -6    2    0    5    1    0.000003   -0.000000
   -6    2    0    6    1   -0.000039   -0.000000
   -6    2    0    7    1   -0.000039    0.000000
   -6    2    0    8    1   -0.000037   -0.000000
   -6    2    0    1    2   -0.000148   -0.000000
   -6    2    0    2    2    0.000759   -0.000000
   -6    2    0    3    2   -0.001133    0.000000
   -6    2    0    4    2    0.000131    0.000000
   -6    2    0    5    2    0.000035    0.000000
   -6    2    0    6    2   -0.000106   -0.000000
   -6    2    0    7    2    0.000047   -0.000000
   -6    2    0    8    2    0.000124   -0.000000
   -6    2    0    1    3   -0.000148   -0.000000
   -6    2    0    2    3   -0.001133   -0.000000
   -6    2    0    3    3    0.000759   -0.000000
   -6    2    0    4    3    0.000131   -0.000000
   -6    2    0    5    3    0.000035   -0.000000
   -6    2    0    6    3    0.000047    0.000000
   -6    2    0    7    3   -0.000106    0.000000
   -6    2    0    8    3    0.000124    0.000000
   -6    2    0    1    4   -0.000022    0.000000
   -6    2    0    2    4    0.000131    0.000000
   -6    2    0    3    4    0.000131    0.000000
   -6    2    0    4    4   -0.001678    0.000000
   -6    2    0    5    4   -0.000065    0.000000
   -6    2    0    6    4   -0.000076    0.000000
   -6    2    0    7    4   -0.000076    0.000000
   -6    2    0    8    4   -0.000196   -0.000000
   -6    2    0    1    5   -0.000158   -0.000000
   -6    2    0    2    5    0.000046   -0.000000
   -6    2    0    3    5    0.000046   -0.000000
   -6    2    0    4    5    0.000043   -0.000000
   -6    2    0    5    5    0.000009   -0.000000
   -6    2    0    6    5    0.000001   -0.000000
   -6    2    0    7    5    0.000001    0.000000
   -6    2    0    8    5    0.000041    0.000000
   -6    2    0    1    6    0.000009    0.000000
   -6    2    0    2    6    0.000186   -0.000000
   -6    2    0    3    6   -0.000166    0.000000
   -6    2    0    4    6   -0.000031   -0.000000
   -6    2    0    5    6   -0.000001   -0.000000
   -6    2    0    6    6   -0.000070    0.000000
   -6    2    0    7    6    0.000018   -0.000000
   -6    2    0    8    6    0.000011   -0.000000
   -6    2    0    1    7    0.000009   -0.000000
   -6    2    0    2    7   -0.000166   -0.000000
   -6    2    0    3    7    0.000186    0.000000
   -6    2    0    4    7   -0.000031    0.000000
   -6    2    0    5    7   -0.000001   -0.000000
   -6    2    0    6    7    0.000018   -0.000000
   -6    2    0    7    7   -0.000070    0.000000
   -6    2    0    8    7    0.000011    0.000000
   -6    2    0    1    8   -0.000076    0.000000
   -6    2    0    2    8    0.000070    0.000000
   -6    2    0    3    8    0.000070    0.000000
   -6    2    0    4    8   -0.000214    0.000000
   -6    2    0    5    8   -0.000041   -0.000000
   -6    2    0    6    8    0.000011    0.000000
   -6    2    0    7    8    0.000011    0.000000
   -6    2    0    8    8    0.000067    0.000000
   -6    2    1    1    1    0.000096   -0.000000
   -6    2    1    2    1   -0.000174   -0.000000
   -6    2    1    3    1   -0.000167   -0.000000
   -6    2    1    4    1   -0.000156    0.000000
   -6    2    1    5    1   -0.000002   -0.000000
   -6    2    1    6    1    0.000046   -0.000000
   -6    2    1    7    1   -0.000063   -0.000000
   -6    2    1    8    1   -0.000046   -0.000000
   -6    2    1    1    2    0.000174    0.000000
   -6    2    1    2    2   -0.000103   -0.000000
   -6    2    1    3    2   -0.000160   -0.000000
   -6    2    1    4    2   -0.000012   -0.000000
   -6    2    1    5    2    0.000005    0.000000
   -6    2    1    6    2   -0.000115   -0.000000
   -6    2    1    7    2    0.000211    0.000000
   -6    2    1    8    2   -0.000034   -0.000000
   -6    2    1    1    3    0.000167    0.000000
   -6    2    1    2    3   -0.000160   -0.000000
   -6    2    1    3    3    0.000126    0.000000
   -6    2    1    4    3   -0.000193    0.000000
   -6    2    1    5    3    0.000057   -0.000000
   -6    2    1    6    3    0.000028   -0.000000
   -6    2    1    7    3   -0.000075    0.000000
   -6    2    1    8    3   -0.000028    0.000000
   -6    2    1    1    4    0.000156    0.000000
   -6    2    1    2    4   -0.000012    0.000000
   -6    2    1    3    4   -0.000193    0.000000
   -6    2    1    4    4   -0.000905    0.000000
   -6    2    1    5    4   -0.000005    0.000000
   -6    2    1    6    4   -0.000034    0.000000
   -6    2    1    7    4   -0.000211    0.000000
   -6    2    1    8    4   -0.000115    0.000000
   -6    2    1    1    5    0.000026   -0.000000
   -6    2    1    2    5   -0.000014   -0.000000
   -6    2    1    3    5    0.000085    0.000000
   -6    2    1    4    5    0.000014    0.000000
   -6    2    1    5    5    0.000003    0.000000
   -6    2    1    6    5   -0.000013    0.000000
   -6    2    1    7    5    0.000001    0.000000
   -6    2    1    8    5   -0.000010   -0.000000
   -6    2    1    1    6    0.000111   -0.000000
   -6    2    1    2    6   -0.000207    0.000000
   -6    2    1    3    6    0.000128    0.000000
   -6    2    1    4    6   -0.000047   -0.000000
   -6    2    1    5    6    0.000013    0.000000
   -6    2    1    6    6   -0.000032   -0.000000
   -6    2    1    7    6    0.000033    0.000000
   -6    2    1    8    6   -0.000024    0.000000
   -6    2    1    1    7   -0.000002   -0.000000
   -6    2    1    2    7    0.000112   -0.000000
   -6    2    1    3    7   -0.000082    0.000000
   -6    2    1    4    7   -0.000088    0.000000
   -6    2    1    5    7   -0.000001    0.000000
   -6    2    1    6    7    0.000033    0.000000
   -6    2    1    7    7   -0.000023    0.000000
   -6    2    1    8    7    0.000019   -0.000000
   -6    2    1    1    8   -0.000167    0.000000
   -6    2    1    2    8    0.000244    0.000000
   -6    2    1    3    8   -0.000091    0.000000
   -6    2    1    4    8   -0.000069    0.000000
   -6    2    1    5    8    0.000010   -0.000000
   -6    2    1    6    8   -0.000024    0.000000
   -6    2    1    7    8    0.000019    0.000000
   -6    2    1    8    8    0.000085    0.000000
   -6    2    2    1    1    0.000012   -0.000000
   -6    2    2    2    1    0.000524   -0.000000
   -6    2    2    3    1   -0.000524   -0.000000
   -6    2    2    4    1   -0.000524    0.000000
   -6    2    2    5    1   -0.000002    0.000000
   -6    2    2    6    1    0.000046   -0.000000
   -6    2    2    7    1   -0.000046   -0.000000
   -6    2    2    8    1   -0.000063   -0.000000
   -6    2    2    1    2   -0.000524    0.000000
   -6    2    2    2    2    0.000063   -0.000000
   -6    2    2    3    2    0.000384   -0.000000
   -6    2    2    4    2    0.000384   -0.000000
   -6    2    2    5    2    0.000005   -0.000000
   -6    2    2    6    2   -0.000115    0.000000
   -6    2    2    7    2   -0.000034   -0.000000
   -6    2    2    8    2    0.000211   -0.000000
   -6    2    2    1    3    0.000524   -0.000000
   -6    2    2    2    3    0.000384    0.000000
   -6    2    2    3    3    0.000063    0.000000
   -6    2    2    4    3   -0.000384    0.000000
   -6    2    2    5    3   -0.000005    0.000000
   -6    2    2    6    3   -0.000034   -0.000000
   -6    2    2    7    3   -0.000115    0.000000
   -6    2    2    8    3   -0.000211    0.000000
   -6    2    2    1    4    0.000524   -0.000000
   -6    2    2    2    4    0.000384    0.000000
   -6    2    2    3    4   -0.000384    0.000000
   -6    2    2    4    4    0.000063    0.000000
   -6    2    2    5    4    0.000057   -0.000000
   -6    2    2    6    4    0.000028   -0.000000
   -6    2    2    7    4   -0.000028   -0.000000
   -6    2    2    8    4   -0.000075    0.000000
   -6    2    2    1    5    0.000022    0.000000
   -6    2    2    2    5   -0.000026   -0.000000
   -6    2    2    3    5    0.000026   -0.000000
   -6    2    2    4    5   -0.000068    0.000000
   -6    2    2    5    5   -0.000008    0.000000
   -6    2    2    6    5    0.000030   -0.000000
   -6    2    2    7    5   -0.000030   -0.000000
   -6    2    2    8    5   -0.000030    0.000000
   -6    2    2    1    6    0.000005    0.000000
   -6    2    2    2    6   -0.000098    0.000000
   -6    2    2    3    6    0.000113    0.000000
   -6    2    2    4    6   -0.000075   -0.000000
   -6    2    2    5    6   -0.000030    0.000000
   -6    2    2    6    6    0.000041   -0.000000
   -6    2    2    7    6   -0.000037    0.000000
   -6    2    2    8    6   -0.000037   -0.000000
   -6    2    2    1    7   -0.000005   -0.000000
   -6    2    2    2    7    0.000113    0.000000
   -6    2    2    3    7   -0.000098    0.000000
   -6    2    2    4    7    0.000075    0.000000
   -6    2    2    5    7    0.000030   -0.000000
   -6    2    2    6    7   -0.000037    0.000000
   -6    2    2    7    7    0.000041    0.000000
   -6    2    2    8    7    0.000037    0.000000
   -6    2    2    1    8   -0.000003    0.000000
   -6    2    2    2    8   -0.000187    0.000000
   -6    2    2    3    8    0.000187    0.000000
   -6    2    2    4    8    0.000107    0.000000
   -6    2    2    5    8    0.000030    0.000000
   -6    2    2    6    8   -0.000037    0.000000
   -6    2    2    7    8    0.000037   -0.000000
   -6    2    2    8    8    0.000041    0.000000
   -6    2    3    1    1    0.000096    0.000000
   -6    2    3    2    1   -0.000174    0.000000
   -6    2    3    3    1   -0.000156    0.000000
   -6    2    3    4    1   -0.000167    0.000000
   -6    2    3    5    1    0.000003   -0.000000
   -6    2    3    6    1   -0.000039    0.000000
   -6    2    3    7    1   -0.000037    0.000000
   -6    2    3    8    1   -0.000039   -0.000000
   -6    2    3    1    2    0.000174   -0.000000
   -6    2    3    2    2   -0.000103   -0.000000
   -6    2    3    3    2   -0.000012   -0.000000
   -6    2    3    4    2   -0.000160    0.000000
   -6    2    3    5    2    0.000035   -0.000000
   -6    2    3    6    2   -0.000106    0.000000
   -6    2    3    7    2    0.000124   -0.000000
   -6    2    3    8    2    0.000047   -0.000000
   -6    2    3    1    3    0.000156    0.000000
   -6    2    3    2    3   -0.000012    0.000000
   -6    2    3    3    3   -0.000905   -0.000000
   -6    2    3    4    3   -0.000193    0.000000
   -6    2    3    5    3   -0.000065    0.000000
   -6    2    3    6    3   -0.000076   -0.000000
   -6    2    3    7    3   -0.000196    0.000000
   -6    2    3    8    3   -0.000076    0.000000
   -6    2    3    1    4    0.000167   -0.000000
   -6    2    3    2    4   -0.000160    0.000000
   -6    2    3    3    4   -0.000193    0.000000
   -6    2    3    4    4    0.000126    0.000000
   -6    2    3    5    4    0.000035   -0.000000
   -6    2    3    6    4    0.000047   -0.000000
   -6    2    3    7    4    0.000124   -0.000000
   -6    2    3    8    4   -0.000106   -0.000000
   -6    2    3    1    5    0.000022   -0.000000
   -6    2    3    2    5   -0.000026   -0.000000
   -6    2    3    3    5   -0.000068   -0.000000
   -6    2    3    4    5    0.000026    0.000000
   -6    2    3    5    5    0.000003    0.000000
   -6    2    3    6    5   -0.000013   -0.000000
   -6    2    3    7    5   -0.000010   -0.000000
   -6    2    3    8    5    0.000001   -0.000000
   -6    2    3    1    6    0.000005   -0.000000
   -6    2    3    2    6   -0.000098   -0.000000
   -6    2    3    3    6   -0.000075   -0.000000
   -6    2    3    4    6    0.000113   -0.000000
   -6    2    3    5    6    0.000013    0.000000
   -6    2    3    6    6   -0.000032    0.000000
   -6    2    3    7    6   -0.000024   -0.000000
   -6    2    3    8    6    0.000033   -0.000000
   -6    2    3    1    7   -0.000003    0.000000
   -6    2    3    2    7   -0.000187   -0.000000
   -6    2    3    3    7    0.000107    0.000000
   -6    2    3    4    7    0.000187    0.000000
   -6    2    3    5    7    0.000010    0.000000
   -6    2    3    6    7   -0.000024   -0.000000
   -6    2    3    7    7    0.000085    0.000000
   -6    2    3    8    7    0.000019   -0.000000
   -6    2    3    1    8   -0.000005    0.000000
   -6    2    3    2    8    0.000113    0.000000
   -6    2    3    3    8    0.000075    0.000000
   -6    2    3    4    8   -0.000098    0.000000
   -6    2    3    5    8   -0.000001   -0.000000
   -6    2    3    6    8    0.000033   -0.000000
   -6    2    3    7    8    0.000019   -0.000000
   -6    2    3    8    8   -0.000023    0.000000
   -6    2    4    1    1    0.000147    0.000000
   -6    2    4    2    1    0.000148    0.000000
   -6    2    4    3    1    0.000022    0.000000
   -6    2    4    4    1    0.000148    0.000000
   -6    2    4    5    1    0.000029   -0.000000
   -6    2    4    6    1    0.000013    0.000000
   -6    2    4    7    1    0.000167   -0.000000
   -6    2    4    8    1   -0.000038   -0.000000
   -6    2    4    1    2   -0.000148   -0.000000
   -6    2    4    2    2    0.000759   -0.000000
   -6    2    4    3    2    0.000131   -0.000000
   -6    2    4    4    2   -0.001133    0.000000
   -6    2    4    5    2   -0.000104   -0.000000
   -6    2    4    6    2    0.000025    0.000000
   -6    2    4    7    2   -0.000120   -0.000000
   -6    2    4    8    2   -0.000022    0.000000
   -6    2    4    1    3   -0.000022    0.000000
   -6    2    4    2    3    0.000131   -0.000000
   -6    2    4    3    3   -0.001678   -0.000000
   -6    2    4    4    3    0.000131    0.000000
   -6    2    4    5    3   -0.000014    0.000000
   -6    2    4    6    3    0.000003    0.000000
   -6    2    4    7    3   -0.000292   -0.000000
   -6    2    4    8    3   -0.000002    0.000000
   -6    2    4    1    4   -0.000148   -0.000000
   -6    2    4    2    4   -0.001133   -0.000000
   -6    2    4    3    4    0.000131    0.000000
   -6    2    4    4    4    0.000759    0.000000
   -6    2    4    5    4   -0.000030   -0.000000
   -6    2    4    6    4   -0.000052   -0.000000
   -6    2    4    7    4    0.000311   -0.000000
   -6    2    4    8    4   -0.000271   -0.000000
   -6    2    4    1    5    0.000026    0.000000
   -6    2    4    2    5   -0.000014   -0.000000
   -6    2    4    3    5    0.000014    0.000000
   -6    2    4    4    5    0.000085    0.000000
   -6    2    4    5    5    0.000009   -0.000000
   -6    2    4    6    5    0.000001    0.000000
   -6    2    4    7    5    0.000041    0.000000
   -6    2    4    8    5    0.000001    0.000000
   -6    2    4    1    6    0.000111    0.000000
   -6    2    4    2    6   -0.000207   -0.000000
   -6    2    4    3    6   -0.000047   -0.000000
   -6    2    4    4    6    0.000128   -0.000000
   -6    2    4    5    6   -0.000001    0.000000
   -6    2    4    6    6   -0.000070   -0.000000
   -6    2    4    7    6    0.000011   -0.000000
   -6    2    4    8    6    0.000018    0.000000
   -6    2    4    1    7   -0.000167    0.000000
   -6    2    4    2    7    0.000244   -0.000000
   -6    2    4    3    7   -0.000069    0.000000
   -6    2    4    4    7   -0.000091   -0.000000
   -6    2    4    5    7   -0.000041    0.000000
   -6    2    4    6    7    0.000011   -0.000000
   -6    2    4    7    7    0.000067    0.000000
   -6    2    4    8    7    0.000011   -0.000000
   -6    2    4    1    8   -0.000002   -0.000000
   -6    2    4    2    8    0.000112    0.000000
   -6    2    4    3    8   -0.000088    0.000000
   -6    2    4    4    8   -0.000082   -0.000000
   -6    2    4    5    8   -0.000001   -0.000000
   -6    2    4    6    8    0.000018   -0.000000
   -6    2    4    7    8    0.000011    0.000000
   -6    2    4    8    8   -0.000070   -0.000000
   -6    3   -1    1    1    0.000239   -0.000000
   -6    3   -1    2    1    0.000426   -0.000000
   -6    3   -1    3    1    0.000426    0.000000
   -6    3   -1    4    1   -0.000054   -0.000000
   -6    3   -1    5    1   -0.000048    0.000000
   -6    3   -1    6    1    0.000022   -0.000000
   -6    3   -1    7    1    0.000022   -0.000000
   -6    3   -1    8    1   -0.000022   -0.000000
   -6    3   -1    1    2   -0.000426   -0.000000
   -6    3   -1    2    2    0.001357   -0.000000
   -6    3   -1    3    2   -0.000707    0.000000
   -6    3   -1    4    2    0.000343    0.000000
   -6    3   -1    5    2   -0.000028    0.000000
   -6    3   -1    6    2   -0.000058    0.000000
   -6    3   -1    7    2   -0.000122   -0.000000
   -6    3   -1    8    2    0.000122   -0.000000
   -6    3   -1    1    3   -0.000426   -0.000000
   -6    3   -1    2    3   -0.000707   -0.000000
   -6    3   -1    3    3    0.001357    0.000000
   -6    3   -1    4    3    0.000343   -0.000000
   -6    3   -1    5    3   -0.000028   -0.000000
   -6    3   -1    6    3   -0.000122   -0.000000
   -6    3   -1    7    3   -0.000058    0.000000
   -6    3   -1    8    3    0.000122   -0.000000
   -6    3   -1    1    4    0.000054   -0.000000
   -6    3   -1    2    4    0.000343   -0.000000
   -6    3   -1    3    4    0.000343    0.000000
   -6    3   -1    4    4    0.000513    0.000000
   -6    3   -1    5    4    0.000028    0.000000
   -6    3   -1    6    4    0.000122    0.000000
   -6    3   -1    7    4    0.000122    0.000000
   -6    3   -1    8    4   -0.000058   -0.000000
   -6    3   -1    1    5   -0.000059   -0.000000
   -6    3   -1    2    5    0.000052   -0.000000
   -6    3   -1    3    5    0.000052   -0.000000
   -6    3   -1    4    5   -0.000024   -0.000000
   -6    3   -1    5    5    0.000003   -0.000000
   -6    3   -1    6    5    0.000017   -0.000000
   -6    3   -1    7    5    0.000017    0.000000
   -6    3   -1    8    5    0.000011   -0.000000
   -6    3   -1    1    6   -0.000037    0.000000
   -6    3   -1    2    6   -0.000098   -0.000000
   -6    3   -1    3    6   -0.000124   -0.000000
   -6    3   -1    4    6    0.000039    0.000000
   -6    3   -1    5    6   -0.000017    0.000000
   -6    3   -1    6    6   -0.000010   -0.000000
   -6    3   -1    7    6   -0.000006   -0.000000
   -6    3   -1    8    6    0.000005   -0.000000
   -6    3   -1    1    7   -0.000037   -0.000000
   -6    3   -1    2    7   -0.000124   -0.000000
   -6    3   -1    3    7   -0.000098   -0.000000
   -6    3   -1    4    7    0.000039    0.000000
   -6    3   -1    5    7   -0.000017    0.000000
   -6    3   -1    6    7   -0.000006   -0.000000
   -6    3   -1    7    7   -0.000010    0.000000
   -6    3   -1    8    7    0.000005    0.000000
   -6    3   -1    1    8   -0.000002    0.000000
   -6    3   -1    2    8   -0.000027    0.000000
   -6    3   -1    3    8   -0.000027    0.000000
   -6    3   -1    4    8   -0.000197    0.000000
   -6    3   -1    5    8   -0.000011    0.000000
   -6    3   -1    6    8    0.000005    0.000000
   -6    3   -1    7    8    0.000005    0.000000
   -6    3   -1    8    8    0.000000    0.000000
   -6    3    0    1    1   -0.000064   -0.000000
   -6    3    0    2    1   -0.000266   -0.000000
   -6    3    0    3    1    0.000158    0.000000
   -6    3    0    4    1    0.000266    0.000000
   -6    3    0    5    1    0.000003   -0.000000
   -6    3    0    6    1    0.000037   -0.000000
   -6    3    0    7    1   -0.000039    0.000000
   -6    3    0    8    1    0.000039    0.000000
   -6    3    0    1    2    0.000266    0.000000
   -6    3    0    2    2   -0.000530   -0.000000
   -6    3    0    3    2   -0.000313    0.000000
   -6    3    0    4    2   -0.000001   -0.000000
   -6    3    0    5    2    0.000065    0.000000
   -6    3    0    6    2   -0.000196    0.000000
   -6    3    0    7    2    0.000076    0.000000
   -6    3    0    8    2   -0.000076   -0.000000
   -6    3    0    1    3   -0.000158   -0.000000
   -6    3    0    2    3   -0.000313   -0.000000
   -6    3    0    3    3    0.000627    0.000000
   -6    3    0    4    3    0.000313   -0.000000
   -6    3    0    5    3    0.000035   -0.000000
   -6    3    0    6    3   -0.000124   -0.000000
   -6    3    0    7    3   -0.000106    0.000000
   -6    3    0    8    3   -0.000047    0.000000
   -6    3    0    1    4   -0.000266   -0.000000
   -6    3    0    2    4   -0.000001   -0.000000
   -6    3    0    3    4    0.000313    0.000000
   -6    3    0    4    4   -0.000530    0.000000
   -6    3    0    5    4   -0.000035   -0.000000
   -6    3    0    6    4    0.000124    0.000000
   -6    3    0    7    4   -0.000047    0.000000
   -6    3    0    8    4   -0.000106    0.000000
   -6    3    0    1    5    0.000029   -0.000000
   -6    3    0    2    5    0.000030   -0.000000
   -6    3    0    3    5    0.000104    0.000000
   -6    3    0    4    5    0.000014    0.000000
   -6    3    0    5    5   -0.000005   -0.000000
   -6    3    0    6    5    0.000001   -0.000000
   -6    3    0    7    5    0.000003   -0.000000
   -6    3    0    8    5   -0.000001    0.000000
   -6    3    0    1    6    0.000038    0.000000
   -6    3    0    2    6   -0.000271    0.000000
   -6    3    0    3    6   -0.000022    0.000000
   -6    3    0    4    6   -0.000002   -0.000000
   -6    3    0    5    6   -0.000001   -0.000000
   -6    3    0    6    6    0.000026    0.000000
   -6    3    0    7    6   -0.000002   -0.000000
   -6    3    0    8    6   -0.000017   -0.000000
   -6    3    0    1    7   -0.000013    0.000000
   -6    3    0    2    7   -0.000052    0.000000
   -6    3    0    3    7    0.000025   -0.000000
   -6    3    0    4    7    0.000003    0.000000
   -6    3    0    5    7   -0.000003   -0.000000
   -6    3    0    6    7   -0.000002   -0.000000
   -6    3    0    7    7   -0.000023   -0.000000
   -6    3    0    8    7    0.000002   -0.000000
   -6    3    0    1    8   -0.000167    0.000000
   -6    3    0    2    8    0.000311    0.000000
   -6    3    0    3    8   -0.000120    0.000000
   -6    3    0    4    8   -0.000292    0.000000
   -6    3    0    5    8    0.000001    0.000000
   -6    3    0    6    8   -0.000017   -0.000000
   -6    3    0    7    8    0.000002    0.000000
   -6    3    0    8    8    0.000026    0.000000
   -6    3    1    1    1    0.000096   -0.000000
   -6    3    1    2    1    0.000156   -0.000000
   -6    3    1    3    1   -0.000167   -0.000000
   -6    3    1    4    1    0.000174    0.000000
   -6    3    1    5    1    0.000029    0.000000
   -6    3    1    6    1    0.000066   -0.000000
   -6    3    1    7    1   -0.000000    0.000000
   -6    3    1    8    1    0.000000    0.000000
[...]
    6    2   -4    2    7   -0.000135   -0.000000
    6    2   -4    3    7   -0.000069   -0.000000
    6    2   -4    4    7    0.000070   -0.000000
    6    2   -4    5    7   -0.000007   -0.000000
    6    2   -4    6    7    0.000015   -0.000000
    6    2   -4    7    7    0.000053    0.000000
    6    2   -4    8    7    0.000015   -0.000000
    6    2   -4    1    8   -0.000059    0.000000
    6    2   -4    2    8   -0.000110   -0.000000
    6    2   -4    3    8   -0.000110   -0.000000
    6    2   -4    4    8    0.000104   -0.000000
    6    2   -4    5    8   -0.000007    0.000000
    6    2   -4    6    8    0.000015    0.000000
    6    2   -4    7    8    0.000015   -0.000000
    6    2   -4    8    8    0.000053   -0.000000
    7   -3   -3    1    1   -0.000208   -0.000000
    7   -3   -3    2    1    0.000380   -0.000000
    7   -3   -3    3    1   -0.000380   -0.000000
    7   -3   -3    4    1    0.000380    0.000000
    7   -3   -3    5    1   -0.000002   -0.000000
    7   -3   -3    6    1   -0.000046   -0.000000
    7   -3   -3    7    1    0.000046    0.000000
    7   -3   -3    8    1    0.000063   -0.000000
    7   -3   -3    1    2   -0.000380   -0.000000
    7   -3   -3    2    2   -0.001148   -0.000000
    7   -3   -3    3    2   -0.000403   -0.000000
    7   -3   -3    4    2    0.000403   -0.000000
    7   -3   -3    5    2   -0.000005    0.000000
    7   -3   -3    6    2   -0.000115    0.000000
    7   -3   -3    7    2   -0.000034   -0.000000
    7   -3   -3    8    2    0.000211    0.000000
    7   -3   -3    1    3    0.000380    0.000000
    7   -3   -3    2    3   -0.000403    0.000000
    7   -3   -3    3    3   -0.001148    0.000000
    7   -3   -3    4    3   -0.000403   -0.000000
    7   -3   -3    5    3    0.000005    0.000000
    7   -3   -3    6    3   -0.000034    0.000000
    7   -3   -3    7    3   -0.000115   -0.000000
    7   -3   -3    8    3   -0.000211   -0.000000
    7   -3   -3    1    4   -0.000380   -0.000000
    7   -3   -3    2    4    0.000403    0.000000
    7   -3   -3    3    4   -0.000403   -0.000000
    7   -3   -3    4    4   -0.001148    0.000000
    7   -3   -3    5    4   -0.000057   -0.000000
    7   -3   -3    6    4    0.000028    0.000000
    7   -3   -3    7    4   -0.000028   -0.000000
    7   -3   -3    8    4   -0.000075   -0.000000
    7   -3   -3    1    5    0.000003   -0.000000
    7   -3   -3    2    5    0.000035   -0.000000
    7   -3   -3    3    5   -0.000035   -0.000000
    7   -3   -3    4    5    0.000065    0.000000
    7   -3   -3    5    5    0.000003   -0.000000
    7   -3   -3    6    5    0.000011   -0.000000
    7   -3   -3    7    5   -0.000011   -0.000000
    7   -3   -3    8    5    0.000011   -0.000000
    7   -3   -3    1    6   -0.000039   -0.000000
    7   -3   -3    2    6   -0.000106   -0.000000
    7   -3   -3    3    6   -0.000047   -0.000000
    7   -3   -3    4    6    0.000076    0.000000
    7   -3   -3    5    6   -0.000011   -0.000000
    7   -3   -3    6    6   -0.000004    0.000000
    7   -3   -3    7    6   -0.000004   -0.000000
    7   -3   -3    8    6    0.000004    0.000000
    7   -3   -3    1    7    0.000039    0.000000
    7   -3   -3    2    7   -0.000047    0.000000
    7   -3   -3    3    7   -0.000106    0.000000
    7   -3   -3    4    7   -0.000076    0.000000
    7   -3   -3    5    7    0.000011    0.000000
    7   -3   -3    6    7   -0.000004    0.000000
    7   -3   -3    7    7   -0.000004   -0.000000
    7   -3   -3    8    7   -0.000004    0.000000
    7   -3   -3    1    8    0.000037   -0.000000
    7   -3   -3    2    8   -0.000124    0.000000
    7   -3   -3    3    8    0.000124    0.000000
    7   -3   -3    4    8   -0.000196   -0.000000
    7   -3   -3    5    8   -0.000011    0.000000
    7   -3   -3    6    8    0.000004   -0.000000
    7   -3   -3    7    8   -0.000004   -0.000000
    7   -3   -3    8    8   -0.000004   -0.000000
    7   -3   -2    1    1   -0.000163    0.000000
    7   -3   -2    2    1   -0.000107   -0.000000
    7   -3   -2    3    1    0.000000    0.000000
    7   -3   -2    4    1   -0.000000    0.000000
    7   -3   -2    5    1   -0.000002    0.000000
    7   -3   -2    6    1   -0.000046   -0.000000
    7   -3   -2    7    1    0.000063    0.000000
    7   -3   -2    8    1    0.000046   -0.000000
    7   -3   -2    1    2    0.000107    0.000000
    7   -3   -2    2    2   -0.001782    0.000000
    7   -3   -2    3    2   -0.000000   -0.000000
    7   -3   -2    4    2   -0.000000   -0.000000
    7   -3   -2    5    2   -0.000005    0.000000
    7   -3   -2    6    2   -0.000115   -0.000000
    7   -3   -2    7    2    0.000211   -0.000000
    7   -3   -2    8    2   -0.000034    0.000000
    7   -3   -2    1    3   -0.000000    0.000000
    7   -3   -2    2    3    0.000000    0.000000
    7   -3   -2    3    3   -0.001107    0.000000
    7   -3   -2    4    3   -0.000564   -0.000000
    7   -3   -2    5    3   -0.000057    0.000000
    7   -3   -2    6    3    0.000028   -0.000000
    7   -3   -2    7    3   -0.000075   -0.000000
    7   -3   -2    8    3   -0.000028   -0.000000
    7   -3   -2    1    4   -0.000000   -0.000000
    7   -3   -2    2    4    0.000000    0.000000
    7   -3   -2    3    4   -0.000564    0.000000
    7   -3   -2    4    4   -0.001107   -0.000000
    7   -3   -2    5    4    0.000005   -0.000000
    7   -3   -2    6    4   -0.000034    0.000000
    7   -3   -2    7    4   -0.000211    0.000000
    7   -3   -2    8    4   -0.000115   -0.000000
    7   -3   -2    1    5   -0.000002    0.000000
    7   -3   -2    2    5    0.000005   -0.000000
    7   -3   -2    3    5   -0.000057   -0.000000
    7   -3   -2    4    5    0.000005   -0.000000
    7   -3   -2    5    5   -0.000000   -0.000000
    7   -3   -2    6    5   -0.000009    0.000000
    7   -3   -2    7    5   -0.000000    0.000000
    7   -3   -2    8    5   -0.000000   -0.000000
    7   -3   -2    1    6    0.000046   -0.000000
    7   -3   -2    2    6   -0.000115   -0.000000
    7   -3   -2    3    6   -0.000028   -0.000000
    7   -3   -2    4    6    0.000034    0.000000
    7   -3   -2    5    6    0.000009    0.000000
    7   -3   -2    6    6    0.000007   -0.000000
    7   -3   -2    7    6    0.000000   -0.000000
    7   -3   -2    8    6   -0.000000    0.000000
    7   -3   -2    1    7    0.000063    0.000000
    7   -3   -2    2    7   -0.000211    0.000000
    7   -3   -2    3    7   -0.000075   -0.000000
    7   -3   -2    4    7   -0.000211    0.000000
    7   -3   -2    5    7   -0.000000   -0.000000
    7   -3   -2    6    7   -0.000000   -0.000000
    7   -3   -2    7    7   -0.000012   -0.000000
    7   -3   -2    8    7   -0.000027   -0.000000
    7   -3   -2    1    8    0.000046    0.000000
    7   -3   -2    2    8    0.000034   -0.000000
    7   -3   -2    3    8   -0.000028   -0.000000
    7   -3   -2    4    8   -0.000115    0.000000
    7   -3   -2    5    8    0.000000    0.000000
    7   -3   -2    6    8   -0.000000    0.000000
    7   -3   -2    7    8   -0.000027    0.000000
    7   -3   -2    8    8   -0.000012    0.000000
    7   -3   -1    1    1   -0.000208    0.000000
    7   -3   -1    2    1    0.000380   -0.000000
    7   -3   -1    3    1    0.000380    0.000000
    7   -3   -1    4    1   -0.000380    0.000000
    7   -3   -1    5    1    0.000003   -0.000000
    7   -3   -1    6    1    0.000039   -0.000000
    7   -3   -1    7    1    0.000039    0.000000
    7   -3   -1    8    1    0.000037   -0.000000
    7   -3   -1    1    2   -0.000380    0.000000
    7   -3   -1    2    2   -0.001148    0.000000
    7   -3   -1    3    2    0.000403    0.000000
    7   -3   -1    4    2   -0.000403   -0.000000
    7   -3   -1    5    2   -0.000035    0.000000
    7   -3   -1    6    2   -0.000106   -0.000000
    7   -3   -1    7    2    0.000047    0.000000
    7   -3   -1    8    2    0.000124   -0.000000
    7   -3   -1    1    3   -0.000380   -0.000000
    7   -3   -1    2    3    0.000403    0.000000
    7   -3   -1    3    3   -0.001148    0.000000
    7   -3   -1    4    3   -0.000403   -0.000000
    7   -3   -1    5    3   -0.000035   -0.000000
    7   -3   -1    6    3    0.000047   -0.000000
    7   -3   -1    7    3   -0.000106    0.000000
    7   -3   -1    8    3    0.000124   -0.000000
    7   -3   -1    1    4    0.000380   -0.000000
    7   -3   -1    2    4   -0.000403   -0.000000
    7   -3   -1    3    4   -0.000403   -0.000000
    7   -3   -1    4    4   -0.001148   -0.000000
    7   -3   -1    5    4    0.000065   -0.000000
    7   -3   -1    6    4   -0.000076   -0.000000
    7   -3   -1    7    4   -0.000076    0.000000
    7   -3   -1    8    4   -0.000196   -0.000000
    7   -3   -1    1    5   -0.000002   -0.000000
    7   -3   -1    2    5    0.000005   -0.000000
    7   -3   -1    3    5    0.000005    0.000000
    7   -3   -1    4    5   -0.000057    0.000000
    7   -3   -1    5    5    0.000003   -0.000000
    7   -3   -1    6    5    0.000011   -0.000000
    7   -3   -1    7    5    0.000011   -0.000000
    7   -3   -1    8    5   -0.000011    0.000000
    7   -3   -1    1    6    0.000046    0.000000
    7   -3   -1    2    6   -0.000115    0.000000
    7   -3   -1    3    6    0.000034   -0.000000
    7   -3   -1    4    6   -0.000028    0.000000
    7   -3   -1    5    6   -0.000011    0.000000
    7   -3   -1    6    6   -0.000004   -0.000000
    7   -3   -1    7    6    0.000004    0.000000
    7   -3   -1    8    6   -0.000004   -0.000000
    7   -3   -1    1    7    0.000046   -0.000000
    7   -3   -1    2    7    0.000034   -0.000000
    7   -3   -1    3    7   -0.000115   -0.000000
    7   -3   -1    4    7   -0.000028   -0.000000
    7   -3   -1    5    7   -0.000011    0.000000
    7   -3   -1    6    7    0.000004    0.000000
    7   -3   -1    7    7   -0.000004   -0.000000
    7   -3   -1    8    7   -0.000004   -0.000000
    7   -3   -1    1    8    0.000063    0.000000
    7   -3   -1    2    8   -0.000211    0.000000
    7   -3   -1    3    8   -0.000211   -0.000000
    7   -3   -1    4    8   -0.000075    0.000000
    7   -3   -1    5    8    0.000011   -0.000000
    7   -3   -1    6    8   -0.000004    0.000000
    7   -3   -1    7    8   -0.000004   -0.000000
    7   -3   -1    8    8   -0.000004   -0.000000
    7   -2   -3    1    1   -0.000163    0.000000
    7   -2   -3    2    1   -0.000000   -0.000000
    7   -2   -3    3    1    0.000107   -0.000000
    7   -2   -3    4    1   -0.000000    0.000000
    7   -2   -3    5    1   -0.000002    0.000000
    7   -2   -3    6    1   -0.000063   -0.000000
    7   -2   -3    7    1    0.000046   -0.000000
    7   -2   -3    8    1    0.000046    0.000000
    7   -2   -3    1    2   -0.000000   -0.000000
    7   -2   -3    2    2   -0.001107    0.000000
    7   -2   -3    3    2   -0.000000   -0.000000
    7   -2   -3    4    2    0.000564   -0.000000
    7   -2   -3    5    2    0.000057    0.000000
    7   -2   -3    6    2   -0.000075    0.000000
    7   -2   -3    7    2    0.000028    0.000000
    7   -2   -3    8    2    0.000028   -0.000000
    7   -2   -3    1    3   -0.000107    0.000000
    7   -2   -3    2    3    0.000000    0.000000
    7   -2   -3    3    3   -0.001782    0.000000
    7   -2   -3    4    3    0.000000   -0.000000
    7   -2   -3    5    3    0.000005   -0.000000
    7   -2   -3    6    3    0.000211   -0.000000
    7   -2   -3    7    3   -0.000115   -0.000000
    7   -2   -3    8    3    0.000034   -0.000000
    7   -2   -3    1    4    0.000000   -0.000000
    7   -2   -3    2    4    0.000564    0.000000
    7   -2   -3    3    4   -0.000000    0.000000
    7   -2   -3    4    4   -0.001107   -0.000000
    7   -2   -3    5    4    0.000005   -0.000000
    7   -2   -3    6    4    0.000211    0.000000
    7   -2   -3    7    4    0.000034   -0.000000
    7   -2   -3    8    4   -0.000115   -0.000000
    7   -2   -3    1    5   -0.000002   -0.000000
    7   -2   -3    2    5    0.000057    0.000000
    7   -2   -3    3    5   -0.000005    0.000000
    7   -2   -3    4    5    0.000005   -0.000000
    7   -2   -3    5    5   -0.000000    0.000000
    7   -2   -3    6    5    0.000000   -0.000000
    7   -2   -3    7    5    0.000009   -0.000000
    7   -2   -3    8    5    0.000000   -0.000000
    7   -2   -3    1    6   -0.000063   -0.000000
    7   -2   -3    2    6   -0.000075   -0.000000
    7   -2   -3    3    6   -0.000211    0.000000
    7   -2   -3    4    6    0.000211   -0.000000
    7   -2   -3    5    6    0.000000    0.000000
    7   -2   -3    6    6   -0.000012   -0.000000
    7   -2   -3    7    6    0.000000   -0.000000
    7   -2   -3    8    6    0.000027    0.000000
    7   -2   -3    1    7   -0.000046    0.000000
    7   -2   -3    2    7   -0.000028   -0.000000
    7   -2   -3    3    7   -0.000115   -0.000000
    7   -2   -3    4    7   -0.000034    0.000000
    7   -2   -3    5    7   -0.000009   -0.000000
    7   -2   -3    6    7    0.000000    0.000000
    7   -2   -3    7    7    0.000007   -0.000000
    7   -2   -3    8    7   -0.000000   -0.000000
    7   -2   -3    1    8    0.000046    0.000000
    7   -2   -3    2    8    0.000028   -0.000000
    7   -2   -3    3    8   -0.000034   -0.000000
    7   -2   -3    4    8   -0.000115   -0.000000
    7   -2   -3    5    8   -0.000000   -0.000000
    7   -2   -3    6    8    0.000027    0.000000
    7   -2   -3    7    8    0.000000   -0.000000
    7   -2   -3    8    8   -0.000012   -0.000000
    7   -2   -2    1    1   -0.000163    0.000000
    7   -2   -2    2    1   -0.000000   -0.000000
    7   -2   -2    3    1    0.000000   -0.000000
    7   -2   -2    4    1    0.000107   -0.000000
    7   -2   -2    5    1    0.000029    0.000000
    7   -2   -2    6    1   -0.000000   -0.000000
    7   -2   -2    7    1    0.000000   -0.000000
    7   -2   -2    8    1    0.000066   -0.000000
    7   -2   -2    1    2   -0.000000    0.000000
    7   -2   -2    2    2   -0.001107    0.000000
    7   -2   -2    3    2    0.000564   -0.000000
    7   -2   -2    4    2    0.000000   -0.000000
    7   -2   -2    5    2    0.000000    0.000000
    7   -2   -2    6    2   -0.000094    0.000000
    7   -2   -2    7    2    0.000264    0.000000
    7   -2   -2    8    2   -0.000000   -0.000000
    7   -2   -2    1    3    0.000000    0.000000
    7   -2   -2    2    3    0.000564    0.000000
    7   -2   -2    3    3   -0.001107    0.000000
    7   -2   -2    4    3    0.000000   -0.000000
    7   -2   -2    5    3   -0.000000   -0.000000
    7   -2   -2    6    3    0.000264    0.000000
    7   -2   -2    7    3   -0.000094    0.000000
    7   -2   -2    8    3    0.000000   -0.000000
    7   -2   -2    1    4   -0.000107   -0.000000
    7   -2   -2    2    4    0.000000    0.000000
    7   -2   -2    3    4   -0.000000   -0.000000
    7   -2   -2    4    4   -0.001782    0.000000
    7   -2   -2    5    4   -0.000020   -0.000000
    7   -2   -2    6    4   -0.000000    0.000000
    7   -2   -2    7    4    0.000000   -0.000000
    7   -2   -2    8    4   -0.000178   -0.000000
    7   -2   -2    1    5   -0.000036    0.000000
    7   -2   -2    2    5    0.000000   -0.000000
    7   -2   -2    3    5    0.000000   -0.000000
    7   -2   -2    4    5   -0.000000   -0.000000
    7   -2   -2    5    5   -0.000000   -0.000000
    7   -2   -2    6    5   -0.000000   -0.000000
    7   -2   -2    7    5    0.000000    0.000000
    7   -2   -2    8    5    0.000009   -0.000000
    7   -2   -2    1    6   -0.000000   -0.000000
    7   -2   -2    2    6   -0.000164   -0.000000
    7   -2   -2    3    6    0.000000    0.000000
    7   -2   -2    4    6   -0.000000   -0.000000
    7   -2   -2    5    6   -0.000000    0.000000
    7   -2   -2    6    6   -0.000012   -0.000000
    7   -2   -2    7    6    0.000027   -0.000000
    7   -2   -2    8    6   -0.000000   -0.000000
    7   -2   -2    1    7   -0.000000   -0.000000
    7   -2   -2    2    7   -0.000000    0.000000
    7   -2   -2    3    7   -0.000164   -0.000000
    7   -2   -2    4    7   -0.000000   -0.000000
    7   -2   -2    5    7   -0.000000   -0.000000
    7   -2   -2    6    7    0.000027   -0.000000
    7   -2   -2    7    7   -0.000012   -0.000000
    7   -2   -2    8    7   -0.000000   -0.000000
    7   -2   -2    1    8   -0.000000    0.000000
    7   -2   -2    2    8    0.000000    0.000000
    7   -2   -2    3    8    0.000000   -0.000000
    7   -2   -2    4    8   -0.000164   -0.000000
    7   -2   -2    5    8   -0.000009   -0.000000
    7   -2   -2    6    8   -0.000000    0.000000
    7   -2   -2    7    8    0.000000    0.000000
    7   -2   -2    8    8    0.000007   -0.000000
    7   -1   -3    1    1   -0.000208    0.000000
    7   -1   -3    2    1   -0.000380   -0.000000
    7   -1   -3    3    1   -0.000380   -0.000000
    7   -1   -3    4    1   -0.000380    0.000000
    7   -1   -3    5    1    0.000003    0.000000
    7   -1   -3    6    1   -0.000039   -0.000000
    7   -1   -3    7    1   -0.000039   -0.000000
    7   -1   -3    8    1    0.000037   -0.000000
    7   -1   -3    1    2    0.000380    0.000000
    7   -1   -3    2    2   -0.001148    0.000000
    7   -1   -3    3    2    0.000403   -0.000000
    7   -1   -3    4    2    0.000403   -0.000000
    7   -1   -3    5    2    0.000035   -0.000000
    7   -1   -3    6    2   -0.000106    0.000000
    7   -1   -3    7    2    0.000047   -0.000000
    7   -1   -3    8    2   -0.000124   -0.000000
    7   -1   -3    1    3    0.000380    0.000000
    7   -1   -3    2    3    0.000403    0.000000
    7   -1   -3    3    3   -0.001148   -0.000000
    7   -1   -3    4    3    0.000403    0.000000
    7   -1   -3    5    3    0.000035    0.000000
    7   -1   -3    6    3    0.000047    0.000000
    7   -1   -3    7    3   -0.000106    0.000000
    7   -1   -3    8    3   -0.000124   -0.000000
    7   -1   -3    1    4    0.000380   -0.000000
    7   -1   -3    2    4    0.000403    0.000000
    7   -1   -3    3    4    0.000403    0.000000
    7   -1   -3    4    4   -0.001148   -0.000000
    7   -1   -3    5    4    0.000065   -0.000000
    7   -1   -3    6    4    0.000076    0.000000
    7   -1   -3    7    4    0.000076   -0.000000
    7   -1   -3    8    4   -0.000196    0.000000
    7   -1   -3    1    5   -0.000002    0.000000
    7   -1   -3    2    5   -0.000005    0.000000
    7   -1   -3    3    5   -0.000005   -0.000000
    7   -1   -3    4    5   -0.000057    0.000000
    7   -1   -3    5    5    0.000003    0.000000
    7   -1   -3    6    5   -0.000011   -0.000000
    7   -1   -3    7    5   -0.000011    0.000000
    7   -1   -3    8    5   -0.000011    0.000000
    7   -1   -3    1    6   -0.000046   -0.000000
    7   -1   -3    2    6   -0.000115   -0.000000
    7   -1   -3    3    6    0.000034    0.000000
    7   -1   -3    4    6    0.000028   -0.000000
    7   -1   -3    5    6    0.000011    0.000000
    7   -1   -3    6    6   -0.000004   -0.000000
    7   -1   -3    7    6    0.000004   -0.000000
    7   -1   -3    8    6    0.000004   -0.000000
    7   -1   -3    1    7   -0.000046    0.000000
    7   -1   -3    2    7    0.000034   -0.000000
    7   -1   -3    3    7   -0.000115   -0.000000
    7   -1   -3    4    7    0.000028   -0.000000
    7   -1   -3    5    7    0.000011   -0.000000
    7   -1   -3    6    7    0.000004   -0.000000
    7   -1   -3    7    7   -0.000004    0.000000
    7   -1   -3    8    7    0.000004   -0.000000
    7   -1   -3    1    8    0.000063   -0.000000
    7   -1   -3    2    8    0.000211   -0.000000
    7   -1   -3    3    8    0.000211   -0.000000
    7   -1   -3    4    8   -0.000075    0.000000
    7   -1   -3    5    8    0.000011   -0.000000
    7   -1   -3    6    8    0.000004    0.000000
    7   -1   -3    7    8    0.000004   -0.000000
    7   -1   -3    8    8   -0.000004    0.000000
