
     Program PWSCF v.7.1 starts on  1Aug2024 at 13:40:24 

     This program is part of the open-source Quantum ESPRESSO suite
     for quantum simulation of materials; please cite
         "P. Giannozzi et al., J. Phys.:Condens. Matter 21 395502 (2009);
         "P. Giannozzi et al., J. Phys.:Condens. Matter 29 465901 (2017);
         "P. Giannozzi et al., J. Chem. Phys. 152 154105 (2020);
          URL http://www.quantum-espresso.org", 
     in publications or presentations arising from this work. More details at
     http://www.quantum-espresso.org/quote

     Parallel version (MPI), running on    12 processors

     MPI processes distributed on     1 nodes
     235207 MiB available memory on the printing compute node when the environment starts

     Waiting for input...
     Reading input from standard input

     Current dimensions of program PWSCF are:
     Max number of different atomic species (ntypx) = 10
     Max number of k-points (npk) =  40000
     Max angular momentum in pseudopotentials (lmaxx) =  4

     Atomic positions and unit cell read from directory:
     ./LiF.save/
     Atomic positions from file used, from input discarded


     R & G space division:  proc/nbgrp/npool/nimage =      12
     Subspace diagonalization in iterative solution of the eigenvalue problem:
     a serial algorithm will be used


     Parallelization info
     --------------------
     sticks:   dense  smooth     PW     G-vecs:    dense   smooth      PW
     Min          54      54     16                  917      917     158
     Max          55      55     17                  921      921     161
     Sum         649     649    199                11017    11017    1917

     Using Slab Decomposition



     bravais-lattice index     =            2
     lattice parameter (alat)  =       7.7035  a.u.
     unit-cell volume          =     114.2879 (a.u.)^3
     number of atoms/cell      =            2
     number of atomic types    =            2
     number of electrons       =        10.00
     number of Kohn-Sham states=           10
     kinetic-energy cutoff     =      80.0000  Ry
     charge density cutoff     =     320.0000  Ry
     Exchange-correlation= SLA  PW   NOGX NOGC
                           (   1   4   0   0   0   0   0)

     celldm(1)=   7.703476  celldm(2)=   0.000000  celldm(3)=   0.000000
     celldm(4)=   0.000000  celldm(5)=   0.000000  celldm(6)=   0.000000

     crystal axes: (cart. coord. in units of alat)
               a(1) = (  -0.500000   0.000000   0.500000 )  
               a(2) = (   0.000000   0.500000   0.500000 )  
               a(3) = (  -0.500000   0.500000   0.000000 )  

     reciprocal axes: (cart. coord. in units 2 pi/alat)
               b(1) = ( -1.000000 -1.000000  1.000000 )  
               b(2) = (  1.000000  1.000000  1.000000 )  
               b(3) = ( -1.000000  1.000000 -1.000000 )  


     PseudoPot. # 1 for Li read from file:
     ../psps/Li.upf
     MD5 check sum: cbd9518a540ce8f7f4a0218f2f072fdd
     Pseudo is Norm-conserving, Zval =  3.0
     Generated using ONCVPSP code by D. R. Hamann
     Using radial grid of 1944 points,  4 beta functions with: 
                l(1) =   0
                l(2) =   0
                l(3) =   1
                l(4) =   1

     PseudoPot. # 2 for F  read from file:
     ../psps/F.upf
     MD5 check sum: 3dea638f9c9153f3282cad43c3474f58
     Pseudo is Norm-conserving + core correction, Zval =  7.0
     Generated using ONCVPSP code by D. R. Hamann
     Using radial grid of  824 points,  5 beta functions with: 
                l(1) =   0
                l(2) =   0
                l(3) =   1
                l(4) =   1
                l(5) =   2

     atomic species   valence    mass     pseudopotential
        Li             3.00     6.94100     Li( 1.00)
        F              7.00    18.99840     F ( 1.00)

     48 Sym. Ops., with inversion, found


                                    s                        frac. trans.

      isym =  1     identity                                     

 cryst.   s( 1) = (     1          0          0      )
                  (     0          1          0      )
                  (     0          0          1      )

 cart.    s( 1) = (  1.0000000  0.0000000  0.0000000 )
                  (  0.0000000  1.0000000  0.0000000 )
                  (  0.0000000  0.0000000  1.0000000 )


      isym =  2     180 deg rotation - cart. axis [0,0,1]        

 cryst.   s( 2) = (     0          1         -1      )
                  (     1          0         -1      )
                  (     0          0         -1      )

 cart.    s( 2) = ( -1.0000000  0.0000000  0.0000000 )
                  (  0.0000000 -1.0000000  0.0000000 )
                  (  0.0000000  0.0000000  1.0000000 )


      isym =  3     180 deg rotation - cart. axis [0,1,0]        

 cryst.   s( 3) = (    -1          0          0      )
                  (    -1          0          1      )
                  (    -1          1          0      )

 cart.    s( 3) = ( -1.0000000  0.0000000  0.0000000 )
                  (  0.0000000  1.0000000  0.0000000 )
                  (  0.0000000  0.0000000 -1.0000000 )


      isym =  4     180 deg rotation - cart. axis [1,0,0]        

 cryst.   s( 4) = (     0         -1          1      )
                  (     0         -1          0      )
                  (     1         -1          0      )

 cart.    s( 4) = (  1.0000000  0.0000000  0.0000000 )
                  (  0.0000000 -1.0000000  0.0000000 )
                  (  0.0000000  0.0000000 -1.0000000 )


      isym =  5     180 deg rotation - cart. axis [1,1,0]        

 cryst.   s( 5) = (     0         -1          0      )
                  (    -1          0          0      )
                  (     0          0         -1      )

 cart.    s( 5) = (  0.0000000  1.0000000  0.0000000 )
                  (  1.0000000  0.0000000  0.0000000 )
                  (  0.0000000  0.0000000 -1.0000000 )


      isym =  6     180 deg rotation - cart. axis [1,-1,0]       

 cryst.   s( 6) = (    -1          0          1      )
                  (     0         -1          1      )
                  (     0          0          1      )

 cart.    s( 6) = (  0.0000000 -1.0000000  0.0000000 )
                  ( -1.0000000  0.0000000  0.0000000 )
                  (  0.0000000  0.0000000 -1.0000000 )


      isym =  7      90 deg rotation - cart. axis [0,0,-1]       

 cryst.   s( 7) = (     0          1          0      )
                  (     0          1         -1      )
                  (    -1          1          0      )

 cart.    s( 7) = (  0.0000000  1.0000000  0.0000000 )
                  ( -1.0000000  0.0000000  0.0000000 )
                  (  0.0000000  0.0000000  1.0000000 )


      isym =  8      90 deg rotation - cart. axis [0,0,1]        

 cryst.   s( 8) = (     1          0         -1      )
                  (     1          0          0      )
                  (     1         -1          0      )

 cart.    s( 8) = (  0.0000000 -1.0000000  0.0000000 )
                  (  1.0000000  0.0000000  0.0000000 )
                  (  0.0000000  0.0000000  1.0000000 )


      isym =  9     180 deg rotation - cart. axis [1,0,1]        

 cryst.   s( 9) = (    -1          0          0      )
                  (     0          0         -1      )
                  (     0         -1          0      )

 cart.    s( 9) = (  0.0000000  0.0000000  1.0000000 )
                  (  0.0000000 -1.0000000  0.0000000 )
                  (  1.0000000  0.0000000  0.0000000 )


      isym = 10     180 deg rotation - cart. axis [-1,0,1]       

 cryst.   s(10) = (     1          0          0      )
                  (     1         -1          0      )
                  (     1          0         -1      )

 cart.    s(10) = (  0.0000000  0.0000000 -1.0000000 )
                  (  0.0000000 -1.0000000  0.0000000 )
                  ( -1.0000000  0.0000000  0.0000000 )


      isym = 11      90 deg rotation - cart. axis [0,1,0]        

 cryst.   s(11) = (     0          1         -1      )
                  (    -1          1          0      )
                  (     0          1          0      )

 cart.    s(11) = (  0.0000000  0.0000000  1.0000000 )
                  (  0.0000000  1.0000000  0.0000000 )
                  ( -1.0000000  0.0000000  0.0000000 )


      isym = 12      90 deg rotation - cart. axis [0,-1,0]       

 cryst.   s(12) = (     0         -1          1      )
                  (     0          0          1      )
                  (    -1          0          1      )

 cart.    s(12) = (  0.0000000  0.0000000 -1.0000000 )
                  (  0.0000000  1.0000000  0.0000000 )
                  (  1.0000000  0.0000000  0.0000000 )


      isym = 13     180 deg rotation - cart. axis [0,1,1]        

 cryst.   s(13) = (    -1          1          0      )
                  (     0          1          0      )
                  (     0          1         -1      )

 cart.    s(13) = ( -1.0000000  0.0000000  0.0000000 )
                  (  0.0000000  0.0000000  1.0000000 )
                  (  0.0000000  1.0000000  0.0000000 )


      isym = 14     180 deg rotation - cart. axis [0,1,-1]       

 cryst.   s(14) = (     0          0         -1      )
                  (     0         -1          0      )
                  (    -1          0          0      )

 cart.    s(14) = ( -1.0000000  0.0000000  0.0000000 )
                  (  0.0000000  0.0000000 -1.0000000 )
                  (  0.0000000 -1.0000000  0.0000000 )


      isym = 15      90 deg rotation - cart. axis [-1,0,0]       

 cryst.   s(15) = (     0          0          1      )
                  (    -1          0          1      )
                  (     0         -1          1      )

 cart.    s(15) = (  1.0000000  0.0000000  0.0000000 )
                  (  0.0000000  0.0000000  1.0000000 )
                  (  0.0000000 -1.0000000  0.0000000 )


      isym = 16      90 deg rotation - cart. axis [1,0,0]        

 cryst.   s(16) = (     1         -1          0      )
                  (     1          0         -1      )
                  (     1          0          0      )

 cart.    s(16) = (  1.0000000  0.0000000  0.0000000 )
                  (  0.0000000  0.0000000 -1.0000000 )
                  (  0.0000000  1.0000000  0.0000000 )


      isym = 17     120 deg rotation - cart. axis [-1,-1,-1]     

 cryst.   s(17) = (    -1          0          1      )
                  (    -1          1          0      )
                  (    -1          0          0      )

 cart.    s(17) = (  0.0000000  1.0000000  0.0000000 )
                  (  0.0000000  0.0000000  1.0000000 )
                  (  1.0000000  0.0000000  0.0000000 )


      isym = 18     120 deg rotation - cart. axis [-1,1,1]       

 cryst.   s(18) = (     0          1          0      )
                  (     0          0          1      )
                  (     1          0          0      )

 cart.    s(18) = (  0.0000000 -1.0000000  0.0000000 )
                  (  0.0000000  0.0000000  1.0000000 )
                  ( -1.0000000  0.0000000  0.0000000 )


      isym = 19     120 deg rotation - cart. axis [1,1,-1]       

 cryst.   s(19) = (     1          0         -1      )
                  (     0          0         -1      )
                  (     0          1         -1      )

 cart.    s(19) = (  0.0000000  1.0000000  0.0000000 )
                  (  0.0000000  0.0000000 -1.0000000 )
                  ( -1.0000000  0.0000000  0.0000000 )


      isym = 20     120 deg rotation - cart. axis [1,-1,1]       

 cryst.   s(20) = (     0         -1          0      )
                  (     1         -1          0      )
                  (     0         -1          1      )

 cart.    s(20) = (  0.0000000 -1.0000000  0.0000000 )
                  (  0.0000000  0.0000000 -1.0000000 )
                  (  1.0000000  0.0000000  0.0000000 )


      isym = 21     120 deg rotation - cart. axis [1,1,1]        

 cryst.   s(21) = (     0          0         -1      )
                  (     0          1         -1      )
                  (     1          0         -1      )

 cart.    s(21) = (  0.0000000  0.0000000  1.0000000 )
                  (  1.0000000  0.0000000  0.0000000 )
                  (  0.0000000  1.0000000  0.0000000 )


      isym = 22     120 deg rotation - cart. axis [-1,1,-1]      

 cryst.   s(22) = (    -1          1          0      )
                  (    -1          0          0      )
                  (    -1          0          1      )

 cart.    s(22) = (  0.0000000  0.0000000  1.0000000 )
                  ( -1.0000000  0.0000000  0.0000000 )
                  (  0.0000000 -1.0000000  0.0000000 )


      isym = 23     120 deg rotation - cart. axis [1,-1,-1]      

 cryst.   s(23) = (     0          0          1      )
                  (     1          0          0      )
                  (     0          1          0      )

 cart.    s(23) = (  0.0000000  0.0000000 -1.0000000 )
                  ( -1.0000000  0.0000000  0.0000000 )
                  (  0.0000000  1.0000000  0.0000000 )


      isym = 24     120 deg rotation - cart. axis [-1,-1,1]      

 cryst.   s(24) = (     1         -1          0      )
                  (     0         -1          1      )
                  (     0         -1          0      )

 cart.    s(24) = (  0.0000000  0.0000000 -1.0000000 )
                  (  1.0000000  0.0000000  0.0000000 )
                  (  0.0000000 -1.0000000  0.0000000 )


      isym = 25     inversion                                    

 cryst.   s(25) = (    -1          0          0      )
                  (     0         -1          0      )
                  (     0          0         -1      )

 cart.    s(25) = ( -1.0000000  0.0000000  0.0000000 )
                  (  0.0000000 -1.0000000  0.0000000 )
                  (  0.0000000  0.0000000 -1.0000000 )


      isym = 26     inv. 180 deg rotation - cart. axis [0,0,1]   

 cryst.   s(26) = (     0         -1          1      )
                  (    -1          0          1      )
                  (     0          0          1      )

 cart.    s(26) = (  1.0000000  0.0000000  0.0000000 )
                  (  0.0000000  1.0000000  0.0000000 )
                  (  0.0000000  0.0000000 -1.0000000 )


      isym = 27     inv. 180 deg rotation - cart. axis [0,1,0]   

 cryst.   s(27) = (     1          0          0      )
                  (     1          0         -1      )
                  (     1         -1          0      )

 cart.    s(27) = (  1.0000000  0.0000000  0.0000000 )
                  (  0.0000000 -1.0000000  0.0000000 )
                  (  0.0000000  0.0000000  1.0000000 )


      isym = 28     inv. 180 deg rotation - cart. axis [1,0,0]   

 cryst.   s(28) = (     0          1         -1      )
                  (     0          1          0      )
                  (    -1          1          0      )

 cart.    s(28) = ( -1.0000000  0.0000000  0.0000000 )
                  (  0.0000000  1.0000000  0.0000000 )
                  (  0.0000000  0.0000000  1.0000000 )


      isym = 29     inv. 180 deg rotation - cart. axis [1,1,0]   

 cryst.   s(29) = (     0          1          0      )
                  (     1          0          0      )
                  (     0          0          1      )

 cart.    s(29) = (  0.0000000 -1.0000000  0.0000000 )
                  ( -1.0000000  0.0000000  0.0000000 )
                  (  0.0000000  0.0000000  1.0000000 )


      isym = 30     inv. 180 deg rotation - cart. axis [1,-1,0]  

 cryst.   s(30) = (     1          0         -1      )
                  (     0          1         -1      )
                  (     0          0         -1      )

 cart.    s(30) = (  0.0000000  1.0000000  0.0000000 )
                  (  1.0000000  0.0000000  0.0000000 )
                  (  0.0000000  0.0000000  1.0000000 )


      isym = 31     inv.  90 deg rotation - cart. axis [0,0,-1]  

 cryst.   s(31) = (     0         -1          0      )
                  (     0         -1          1      )
                  (     1         -1          0      )

 cart.    s(31) = (  0.0000000 -1.0000000  0.0000000 )
                  (  1.0000000  0.0000000  0.0000000 )
                  (  0.0000000  0.0000000 -1.0000000 )


      isym = 32     inv.  90 deg rotation - cart. axis [0,0,1]   

 cryst.   s(32) = (    -1          0          1      )
                  (    -1          0          0      )
                  (    -1          1          0      )

 cart.    s(32) = (  0.0000000  1.0000000  0.0000000 )
                  ( -1.0000000  0.0000000  0.0000000 )
                  (  0.0000000  0.0000000 -1.0000000 )


      isym = 33     inv. 180 deg rotation - cart. axis [1,0,1]   

 cryst.   s(33) = (     1          0          0      )
                  (     0          0          1      )
                  (     0          1          0      )

 cart.    s(33) = (  0.0000000  0.0000000 -1.0000000 )
                  (  0.0000000  1.0000000  0.0000000 )
                  ( -1.0000000  0.0000000  0.0000000 )


      isym = 34     inv. 180 deg rotation - cart. axis [-1,0,1]  

 cryst.   s(34) = (    -1          0          0      )
                  (    -1          1          0      )
                  (    -1          0          1      )

 cart.    s(34) = (  0.0000000  0.0000000  1.0000000 )
                  (  0.0000000  1.0000000  0.0000000 )
                  (  1.0000000  0.0000000  0.0000000 )


      isym = 35     inv.  90 deg rotation - cart. axis [0,1,0]   

 cryst.   s(35) = (     0         -1          1      )
                  (     1         -1          0      )
                  (     0         -1          0      )

 cart.    s(35) = (  0.0000000  0.0000000 -1.0000000 )
                  (  0.0000000 -1.0000000  0.0000000 )
                  (  1.0000000  0.0000000  0.0000000 )


      isym = 36     inv.  90 deg rotation - cart. axis [0,-1,0]  

 cryst.   s(36) = (     0          1         -1      )
                  (     0          0         -1      )
                  (     1          0         -1      )

 cart.    s(36) = (  0.0000000  0.0000000  1.0000000 )
                  (  0.0000000 -1.0000000  0.0000000 )
                  ( -1.0000000  0.0000000  0.0000000 )


      isym = 37     inv. 180 deg rotation - cart. axis [0,1,1]   

 cryst.   s(37) = (     1         -1          0      )
                  (     0         -1          0      )
                  (     0         -1          1      )

 cart.    s(37) = (  1.0000000  0.0000000  0.0000000 )
                  (  0.0000000  0.0000000 -1.0000000 )
                  (  0.0000000 -1.0000000  0.0000000 )


      isym = 38     inv. 180 deg rotation - cart. axis [0,1,-1]  

 cryst.   s(38) = (     0          0          1      )
                  (     0          1          0      )
                  (     1          0          0      )

 cart.    s(38) = (  1.0000000  0.0000000  0.0000000 )
                  (  0.0000000  0.0000000  1.0000000 )
                  (  0.0000000  1.0000000  0.0000000 )


      isym = 39     inv.  90 deg rotation - cart. axis [-1,0,0]  

 cryst.   s(39) = (     0          0         -1      )
                  (     1          0         -1      )
                  (     0          1         -1      )

 cart.    s(39) = ( -1.0000000  0.0000000  0.0000000 )
                  (  0.0000000  0.0000000 -1.0000000 )
                  (  0.0000000  1.0000000  0.0000000 )


      isym = 40     inv.  90 deg rotation - cart. axis [1,0,0]   

 cryst.   s(40) = (    -1          1          0      )
                  (    -1          0          1      )
                  (    -1          0          0      )

 cart.    s(40) = ( -1.0000000  0.0000000  0.0000000 )
                  (  0.0000000  0.0000000  1.0000000 )
                  (  0.0000000 -1.0000000  0.0000000 )


      isym = 41     inv. 120 deg rotation - cart. axis [-1,-1,-1]

 cryst.   s(41) = (     1          0         -1      )
                  (     1         -1          0      )
                  (     1          0          0      )

 cart.    s(41) = (  0.0000000 -1.0000000  0.0000000 )
                  (  0.0000000  0.0000000 -1.0000000 )
                  ( -1.0000000  0.0000000  0.0000000 )


      isym = 42     inv. 120 deg rotation - cart. axis [-1,1,1]  

 cryst.   s(42) = (     0         -1          0      )
                  (     0          0         -1      )
                  (    -1          0          0      )

 cart.    s(42) = (  0.0000000  1.0000000  0.0000000 )
                  (  0.0000000  0.0000000 -1.0000000 )
                  (  1.0000000  0.0000000  0.0000000 )


      isym = 43     inv. 120 deg rotation - cart. axis [1,1,-1]  

 cryst.   s(43) = (    -1          0          1      )
                  (     0          0          1      )
                  (     0         -1          1      )

 cart.    s(43) = (  0.0000000 -1.0000000  0.0000000 )
                  (  0.0000000  0.0000000  1.0000000 )
                  (  1.0000000  0.0000000  0.0000000 )


      isym = 44     inv. 120 deg rotation - cart. axis [1,-1,1]  

 cryst.   s(44) = (     0          1          0      )
                  (    -1          1          0      )
                  (     0          1         -1      )

 cart.    s(44) = (  0.0000000  1.0000000  0.0000000 )
                  (  0.0000000  0.0000000  1.0000000 )
                  ( -1.0000000  0.0000000  0.0000000 )


      isym = 45     inv. 120 deg rotation - cart. axis [1,1,1]   

 cryst.   s(45) = (     0          0          1      )
                  (     0         -1          1      )
                  (    -1          0          1      )

 cart.    s(45) = (  0.0000000  0.0000000 -1.0000000 )
                  ( -1.0000000  0.0000000  0.0000000 )
                  (  0.0000000 -1.0000000  0.0000000 )


      isym = 46     inv. 120 deg rotation - cart. axis [-1,1,-1] 

 cryst.   s(46) = (     1         -1          0      )
                  (     1          0          0      )
                  (     1          0         -1      )

 cart.    s(46) = (  0.0000000  0.0000000 -1.0000000 )
                  (  1.0000000  0.0000000  0.0000000 )
                  (  0.0000000  1.0000000  0.0000000 )


      isym = 47     inv. 120 deg rotation - cart. axis [1,-1,-1] 

 cryst.   s(47) = (     0          0         -1      )
                  (    -1          0          0      )
                  (     0         -1          0      )

 cart.    s(47) = (  0.0000000  0.0000000  1.0000000 )
                  (  1.0000000  0.0000000  0.0000000 )
                  (  0.0000000 -1.0000000  0.0000000 )


      isym = 48     inv. 120 deg rotation - cart. axis [-1,-1,1] 

 cryst.   s(48) = (    -1          1          0      )
                  (     0          1         -1      )
                  (     0          1          0      )

 cart.    s(48) = (  0.0000000  0.0000000  1.0000000 )
                  ( -1.0000000  0.0000000  0.0000000 )
                  (  0.0000000  1.0000000  0.0000000 )


     point group O_h (m-3m) 
     there are 10 classes
     the character table:

       E     8C3   3C2   6C4   6C2'  i     8S6   3s_h  6S4   6s_d 
A_1g   1.00  1.00  1.00  1.00  1.00  1.00  1.00  1.00  1.00  1.00
A_2g   1.00  1.00  1.00 -1.00 -1.00  1.00  1.00  1.00 -1.00 -1.00
E_g    2.00 -1.00  2.00  0.00  0.00  2.00 -1.00  2.00  0.00  0.00
T_1g   3.00  0.00 -1.00  1.00 -1.00  3.00  0.00 -1.00  1.00 -1.00
T_2g   3.00  0.00 -1.00 -1.00  1.00  3.00  0.00 -1.00 -1.00  1.00
A_1u   1.00  1.00  1.00  1.00  1.00 -1.00 -1.00 -1.00 -1.00 -1.00
A_2u   1.00  1.00  1.00 -1.00 -1.00 -1.00 -1.00 -1.00  1.00  1.00
E_u    2.00 -1.00  2.00  0.00  0.00 -2.00  1.00 -2.00  0.00  0.00
T_1u   3.00  0.00 -1.00  1.00 -1.00 -3.00  0.00  1.00 -1.00  1.00
T_2u   3.00  0.00 -1.00 -1.00  1.00 -3.00  0.00  1.00  1.00 -1.00

     the symmetry operations in each class and the name of the first element:

     E        1
          identity                                               
     8C3     17   19   20   18   24   21   22   23
          120 deg rotation - cart. axis [-1,-1,-1]               
     3C2      2    4    3
          180 deg rotation - cart. axis [0,0,1]                  
     6C4      7    8   15   16   12   11
           90 deg rotation - cart. axis [0,0,-1]                 
     6C2'     5    6   14   13   10    9
          180 deg rotation - cart. axis [1,1,0]                  
     i       25
          inversion                                              
     8S6     41   43   44   42   48   45   46   47
          inv. 120 deg rotation - cart. axis [-1,-1,-1]          
     3s_h    26   28   27
          inv. 180 deg rotation - cart. axis [0,0,1]             
     6S4     31   32   39   40   36   35
          inv.  90 deg rotation - cart. axis [0,0,-1]            
     6s_d    29   30   38   37   34   33
          inv. 180 deg rotation - cart. axis [1,1,0]             

   Cartesian axes

     site n.     atom                  positions (alat units)
         1           Li  tau(   1) = (   0.0000000   0.0000000   0.0000000  )
         2           F   tau(   2) = (   0.0000000  -0.5000000   0.0000000  )

   Crystallographic axes

     site n.     atom                  positions (cryst. coord.)
         1           Li  tau(   1) = (  0.0000000  0.0000000  0.0000000  )
         2           F   tau(   2) = (  0.5000000 -0.5000000 -0.5000000  )

     number of k points=  1000
                       cart. coord. in units 2pi/alat
        k(    1) = (   0.0000000   0.0000000   0.0000000), wk =   0.0020000
        k(    2) = (  -0.1000000   0.1000000  -0.1000000), wk =   0.0020000
        k(    3) = (   0.1000000  -0.1000000  -0.1000000), wk =   0.0020000
        k(    4) = (   0.1000000   0.1000000   0.1000000), wk =   0.0020000
        k(    5) = (  -0.1000000  -0.1000000   0.1000000), wk =   0.0020000
        k(    6) = (   0.1000000  -0.1000000   0.1000000), wk =   0.0020000
        k(    7) = (  -0.1000000   0.1000000   0.1000000), wk =   0.0020000
        k(    8) = (  -0.1000000  -0.1000000  -0.1000000), wk =   0.0020000
        k(    9) = (   0.1000000   0.1000000  -0.1000000), wk =   0.0020000
        k(   10) = (  -0.2000000   0.2000000  -0.2000000), wk =   0.0020000
        k(   11) = (   0.2000000  -0.2000000  -0.2000000), wk =   0.0020000
        k(   12) = (   0.2000000   0.2000000   0.2000000), wk =   0.0020000
        k(   13) = (  -0.2000000  -0.2000000   0.2000000), wk =   0.0020000
        k(   14) = (   0.2000000  -0.2000000   0.2000000), wk =   0.0020000
        k(   15) = (  -0.2000000   0.2000000   0.2000000), wk =   0.0020000
        k(   16) = (  -0.2000000  -0.2000000  -0.2000000), wk =   0.0020000
        k(   17) = (   0.2000000   0.2000000  -0.2000000), wk =   0.0020000
        k(   18) = (  -0.3000000   0.3000000  -0.3000000), wk =   0.0020000
        k(   19) = (   0.3000000  -0.3000000  -0.3000000), wk =   0.0020000
        k(   20) = (   0.3000000   0.3000000   0.3000000), wk =   0.0020000
        k(   21) = (  -0.3000000  -0.3000000   0.3000000), wk =   0.0020000
        k(   22) = (   0.3000000  -0.3000000   0.3000000), wk =   0.0020000
        k(   23) = (  -0.3000000   0.3000000   0.3000000), wk =   0.0020000
        k(   24) = (  -0.3000000  -0.3000000  -0.3000000), wk =   0.0020000
        k(   25) = (   0.3000000   0.3000000  -0.3000000), wk =   0.0020000
        k(   26) = (  -0.4000000   0.4000000  -0.4000000), wk =   0.0020000
        k(   27) = (   0.4000000  -0.4000000  -0.4000000), wk =   0.0020000
        k(   28) = (   0.4000000   0.4000000   0.4000000), wk =   0.0020000
        k(   29) = (  -0.4000000  -0.4000000   0.4000000), wk =   0.0020000
        k(   30) = (   0.4000000  -0.4000000   0.4000000), wk =   0.0020000
        k(   31) = (  -0.4000000   0.4000000   0.4000000), wk =   0.0020000
        k(   32) = (  -0.4000000  -0.4000000  -0.4000000), wk =   0.0020000
        k(   33) = (   0.4000000   0.4000000  -0.4000000), wk =   0.0020000
        k(   34) = (   0.5000000  -0.5000000   0.5000000), wk =   0.0020000
        k(   35) = (  -0.5000000   0.5000000   0.5000000), wk =   0.0020000
        k(   36) = (  -0.5000000  -0.5000000  -0.5000000), wk =   0.0020000
        k(   37) = (   0.5000000   0.5000000  -0.5000000), wk =   0.0020000
        k(   38) = (   0.0000000   0.2000000   0.0000000), wk =   0.0020000
        k(   39) = (   0.0000000  -0.2000000   0.0000000), wk =   0.0020000
        k(   40) = (   0.2000000   0.0000000   0.0000000), wk =   0.0020000
        k(   41) = (  -0.2000000   0.0000000   0.0000000), wk =   0.0020000
        k(   42) = (   0.0000000   0.0000000   0.2000000), wk =   0.0020000
        k(   43) = (   0.0000000   0.0000000  -0.2000000), wk =   0.0020000
        k(   44) = (  -0.1000000   0.3000000  -0.1000000), wk =   0.0020000
        k(   45) = (   0.1000000  -0.3000000  -0.1000000), wk =   0.0020000
        k(   46) = (   0.1000000   0.3000000   0.1000000), wk =   0.0020000
        k(   47) = (  -0.1000000  -0.3000000   0.1000000), wk =   0.0020000
        k(   48) = (   0.3000000  -0.1000000   0.1000000), wk =   0.0020000
        k(   49) = (  -0.3000000   0.1000000   0.1000000), wk =   0.0020000
        k(   50) = (  -0.3000000  -0.1000000  -0.1000000), wk =   0.0020000
        k(   51) = (   0.3000000   0.1000000  -0.1000000), wk =   0.0020000
        k(   52) = (  -0.1000000  -0.3000000  -0.1000000), wk =   0.0020000
        k(   53) = (   0.1000000  -0.3000000   0.1000000), wk =   0.0020000
        k(   54) = (   0.1000000   0.3000000  -0.1000000), wk =   0.0020000
        k(   55) = (  -0.1000000   0.3000000   0.1000000), wk =   0.0020000
        k(   56) = (   0.1000000  -0.1000000   0.3000000), wk =   0.0020000
        k(   57) = (   0.1000000   0.1000000  -0.3000000), wk =   0.0020000
        k(   58) = (  -0.1000000   0.1000000   0.3000000), wk =   0.0020000
        k(   59) = (  -0.1000000  -0.1000000  -0.3000000), wk =   0.0020000
        k(   60) = (  -0.1000000  -0.1000000   0.3000000), wk =   0.0020000
        k(   61) = (   0.1000000   0.1000000   0.3000000), wk =   0.0020000
        k(   62) = (   0.1000000  -0.1000000  -0.3000000), wk =   0.0020000
        k(   63) = (  -0.1000000   0.1000000  -0.3000000), wk =   0.0020000
        k(   64) = (   0.3000000  -0.1000000  -0.1000000), wk =   0.0020000
        k(   65) = (  -0.3000000   0.1000000  -0.1000000), wk =   0.0020000
        k(   66) = (  -0.3000000  -0.1000000   0.1000000), wk =   0.0020000
        k(   67) = (   0.3000000   0.1000000   0.1000000), wk =   0.0020000
        k(   68) = (  -0.2000000   0.4000000  -0.2000000), wk =   0.0020000
        k(   69) = (   0.2000000  -0.4000000  -0.2000000), wk =   0.0020000
        k(   70) = (   0.2000000   0.4000000   0.2000000), wk =   0.0020000
        k(   71) = (  -0.2000000  -0.4000000   0.2000000), wk =   0.0020000
        k(   72) = (   0.4000000  -0.2000000   0.2000000), wk =   0.0020000
        k(   73) = (  -0.4000000   0.2000000   0.2000000), wk =   0.0020000
        k(   74) = (  -0.4000000  -0.2000000  -0.2000000), wk =   0.0020000
        k(   75) = (   0.4000000   0.2000000  -0.2000000), wk =   0.0020000
        k(   76) = (  -0.2000000  -0.4000000  -0.2000000), wk =   0.0020000
        k(   77) = (   0.2000000  -0.4000000   0.2000000), wk =   0.0020000
        k(   78) = (   0.2000000   0.4000000  -0.2000000), wk =   0.0020000
        k(   79) = (  -0.2000000   0.4000000   0.2000000), wk =   0.0020000
        k(   80) = (   0.2000000  -0.2000000   0.4000000), wk =   0.0020000
        k(   81) = (   0.2000000   0.2000000  -0.4000000), wk =   0.0020000
        k(   82) = (  -0.2000000   0.2000000   0.4000000), wk =   0.0020000
        k(   83) = (  -0.2000000  -0.2000000  -0.4000000), wk =   0.0020000
        k(   84) = (  -0.2000000  -0.2000000   0.4000000), wk =   0.0020000
        k(   85) = (   0.2000000   0.2000000   0.4000000), wk =   0.0020000
        k(   86) = (   0.2000000  -0.2000000  -0.4000000), wk =   0.0020000
        k(   87) = (  -0.2000000   0.2000000  -0.4000000), wk =   0.0020000
        k(   88) = (   0.4000000  -0.2000000  -0.2000000), wk =   0.0020000
        k(   89) = (  -0.4000000   0.2000000  -0.2000000), wk =   0.0020000
        k(   90) = (  -0.4000000  -0.2000000   0.2000000), wk =   0.0020000
        k(   91) = (   0.4000000   0.2000000   0.2000000), wk =   0.0020000
        k(   92) = (  -0.3000000   0.5000000  -0.3000000), wk =   0.0020000
        k(   93) = (   0.3000000  -0.5000000  -0.3000000), wk =   0.0020000
        k(   94) = (   0.3000000   0.5000000   0.3000000), wk =   0.0020000
        k(   95) = (  -0.3000000  -0.5000000   0.3000000), wk =   0.0020000
        k(   96) = (   0.5000000  -0.3000000   0.3000000), wk =   0.0020000
        k(   97) = (  -0.5000000   0.3000000   0.3000000), wk =   0.0020000
        k(   98) = (  -0.5000000  -0.3000000  -0.3000000), wk =   0.0020000
        k(   99) = (   0.5000000   0.3000000  -0.3000000), wk =   0.0020000
        k(  100) = (  -0.3000000  -0.5000000  -0.3000000), wk =   0.0020000
        k(  101) = (   0.3000000  -0.5000000   0.3000000), wk =   0.0020000
        k(  102) = (   0.3000000   0.5000000  -0.3000000), wk =   0.0020000
        k(  103) = (  -0.3000000   0.5000000   0.3000000), wk =   0.0020000
        k(  104) = (   0.3000000  -0.3000000   0.5000000), wk =   0.0020000
        k(  105) = (   0.3000000   0.3000000  -0.5000000), wk =   0.0020000
        k(  106) = (  -0.3000000   0.3000000   0.5000000), wk =   0.0020000
        k(  107) = (  -0.3000000  -0.3000000  -0.5000000), wk =   0.0020000
        k(  108) = (  -0.3000000  -0.3000000   0.5000000), wk =   0.0020000
        k(  109) = (   0.3000000   0.3000000   0.5000000), wk =   0.0020000
        k(  110) = (   0.3000000  -0.3000000  -0.5000000), wk =   0.0020000
        k(  111) = (  -0.3000000   0.3000000  -0.5000000), wk =   0.0020000
        k(  112) = (   0.5000000  -0.3000000  -0.3000000), wk =   0.0020000
        k(  113) = (  -0.5000000   0.3000000  -0.3000000), wk =   0.0020000
        k(  114) = (  -0.5000000  -0.3000000   0.3000000), wk =   0.0020000
        k(  115) = (   0.5000000   0.3000000   0.3000000), wk =   0.0020000
        k(  116) = (   0.6000000  -0.4000000   0.6000000), wk =   0.0020000
        k(  117) = (  -0.6000000   0.4000000   0.6000000), wk =   0.0020000
        k(  118) = (  -0.6000000  -0.4000000  -0.6000000), wk =   0.0020000
        k(  119) = (   0.6000000   0.4000000  -0.6000000), wk =   0.0020000
        k(  120) = (  -0.4000000   0.6000000  -0.6000000), wk =   0.0020000
        k(  121) = (   0.4000000  -0.6000000  -0.6000000), wk =   0.0020000
        k(  122) = (   0.4000000   0.6000000   0.6000000), wk =   0.0020000
        k(  123) = (  -0.4000000  -0.6000000   0.6000000), wk =   0.0020000
        k(  124) = (   0.6000000   0.4000000   0.6000000), wk =   0.0020000
        k(  125) = (  -0.6000000   0.4000000  -0.6000000), wk =   0.0020000
        k(  126) = (  -0.6000000  -0.4000000   0.6000000), wk =   0.0020000
        k(  127) = (   0.6000000  -0.4000000  -0.6000000), wk =   0.0020000
        k(  128) = (  -0.6000000   0.6000000  -0.4000000), wk =   0.0020000
        k(  129) = (  -0.6000000  -0.6000000   0.4000000), wk =   0.0020000
        k(  130) = (   0.6000000  -0.6000000  -0.4000000), wk =   0.0020000
        k(  131) = (   0.6000000   0.6000000   0.4000000), wk =   0.0020000
        k(  132) = (   0.6000000   0.6000000  -0.4000000), wk =   0.0020000
        k(  133) = (  -0.6000000  -0.6000000  -0.4000000), wk =   0.0020000
        k(  134) = (  -0.6000000   0.6000000   0.4000000), wk =   0.0020000
        k(  135) = (   0.6000000  -0.6000000   0.4000000), wk =   0.0020000
        k(  136) = (  -0.4000000   0.6000000   0.6000000), wk =   0.0020000
        k(  137) = (   0.4000000  -0.6000000   0.6000000), wk =   0.0020000
        k(  138) = (   0.4000000   0.6000000  -0.6000000), wk =   0.0020000
        k(  139) = (  -0.4000000  -0.6000000  -0.6000000), wk =   0.0020000
        k(  140) = (   0.5000000  -0.3000000   0.5000000), wk =   0.0020000
        k(  141) = (  -0.5000000   0.3000000   0.5000000), wk =   0.0020000
        k(  142) = (  -0.5000000  -0.3000000  -0.5000000), wk =   0.0020000
        k(  143) = (   0.5000000   0.3000000  -0.5000000), wk =   0.0020000
        k(  144) = (  -0.3000000   0.5000000  -0.5000000), wk =   0.0020000
        k(  145) = (   0.3000000  -0.5000000  -0.5000000), wk =   0.0020000
        k(  146) = (   0.3000000   0.5000000   0.5000000), wk =   0.0020000
        k(  147) = (  -0.3000000  -0.5000000   0.5000000), wk =   0.0020000
        k(  148) = (   0.5000000   0.3000000   0.5000000), wk =   0.0020000
        k(  149) = (  -0.5000000   0.3000000  -0.5000000), wk =   0.0020000
        k(  150) = (  -0.5000000  -0.3000000   0.5000000), wk =   0.0020000
        k(  151) = (   0.5000000  -0.3000000  -0.5000000), wk =   0.0020000
        k(  152) = (  -0.5000000   0.5000000  -0.3000000), wk =   0.0020000
        k(  153) = (  -0.5000000  -0.5000000   0.3000000), wk =   0.0020000
        k(  154) = (   0.5000000  -0.5000000  -0.3000000), wk =   0.0020000
        k(  155) = (   0.5000000   0.5000000   0.3000000), wk =   0.0020000
        k(  156) = (   0.5000000   0.5000000  -0.3000000), wk =   0.0020000
        k(  157) = (  -0.5000000  -0.5000000  -0.3000000), wk =   0.0020000
        k(  158) = (  -0.5000000   0.5000000   0.3000000), wk =   0.0020000
        k(  159) = (   0.5000000  -0.5000000   0.3000000), wk =   0.0020000
        k(  160) = (  -0.3000000   0.5000000   0.5000000), wk =   0.0020000
        k(  161) = (   0.3000000  -0.5000000   0.5000000), wk =   0.0020000
        k(  162) = (   0.3000000   0.5000000  -0.5000000), wk =   0.0020000
        k(  163) = (  -0.3000000  -0.5000000  -0.5000000), wk =   0.0020000
        k(  164) = (   0.4000000  -0.2000000   0.4000000), wk =   0.0020000
        k(  165) = (  -0.4000000   0.2000000   0.4000000), wk =   0.0020000
        k(  166) = (  -0.4000000  -0.2000000  -0.4000000), wk =   0.0020000
        k(  167) = (   0.4000000   0.2000000  -0.4000000), wk =   0.0020000
        k(  168) = (  -0.2000000   0.4000000  -0.4000000), wk =   0.0020000
        k(  169) = (   0.2000000  -0.4000000  -0.4000000), wk =   0.0020000
        k(  170) = (   0.2000000   0.4000000   0.4000000), wk =   0.0020000
        k(  171) = (  -0.2000000  -0.4000000   0.4000000), wk =   0.0020000
        k(  172) = (   0.4000000   0.2000000   0.4000000), wk =   0.0020000
        k(  173) = (  -0.4000000   0.2000000  -0.4000000), wk =   0.0020000
        k(  174) = (  -0.4000000  -0.2000000   0.4000000), wk =   0.0020000
        k(  175) = (   0.4000000  -0.2000000  -0.4000000), wk =   0.0020000
        k(  176) = (  -0.4000000   0.4000000  -0.2000000), wk =   0.0020000
        k(  177) = (  -0.4000000  -0.4000000   0.2000000), wk =   0.0020000
        k(  178) = (   0.4000000  -0.4000000  -0.2000000), wk =   0.0020000
        k(  179) = (   0.4000000   0.4000000   0.2000000), wk =   0.0020000
        k(  180) = (   0.4000000   0.4000000  -0.2000000), wk =   0.0020000
        k(  181) = (  -0.4000000  -0.4000000  -0.2000000), wk =   0.0020000
        k(  182) = (  -0.4000000   0.4000000   0.2000000), wk =   0.0020000
        k(  183) = (   0.4000000  -0.4000000   0.2000000), wk =   0.0020000
        k(  184) = (  -0.2000000   0.4000000   0.4000000), wk =   0.0020000
        k(  185) = (   0.2000000  -0.4000000   0.4000000), wk =   0.0020000
        k(  186) = (   0.2000000   0.4000000  -0.4000000), wk =   0.0020000
        k(  187) = (  -0.2000000  -0.4000000  -0.4000000), wk =   0.0020000
        k(  188) = (   0.3000000  -0.1000000   0.3000000), wk =   0.0020000
        k(  189) = (  -0.3000000   0.1000000   0.3000000), wk =   0.0020000
        k(  190) = (  -0.3000000  -0.1000000  -0.3000000), wk =   0.0020000
        k(  191) = (   0.3000000   0.1000000  -0.3000000), wk =   0.0020000
        k(  192) = (  -0.1000000   0.3000000  -0.3000000), wk =   0.0020000
        k(  193) = (   0.1000000  -0.3000000  -0.3000000), wk =   0.0020000
        k(  194) = (   0.1000000   0.3000000   0.3000000), wk =   0.0020000
        k(  195) = (  -0.1000000  -0.3000000   0.3000000), wk =   0.0020000
        k(  196) = (   0.3000000   0.1000000   0.3000000), wk =   0.0020000
        k(  197) = (  -0.3000000   0.1000000  -0.3000000), wk =   0.0020000
        k(  198) = (  -0.3000000  -0.1000000   0.3000000), wk =   0.0020000
        k(  199) = (   0.3000000  -0.1000000  -0.3000000), wk =   0.0020000
        k(  200) = (  -0.3000000   0.3000000  -0.1000000), wk =   0.0020000
        k(  201) = (  -0.3000000  -0.3000000   0.1000000), wk =   0.0020000
        k(  202) = (   0.3000000  -0.3000000  -0.1000000), wk =   0.0020000
        k(  203) = (   0.3000000   0.3000000   0.1000000), wk =   0.0020000
        k(  204) = (   0.3000000   0.3000000  -0.1000000), wk =   0.0020000
        k(  205) = (  -0.3000000  -0.3000000  -0.1000000), wk =   0.0020000
        k(  206) = (  -0.3000000   0.3000000   0.1000000), wk =   0.0020000
        k(  207) = (   0.3000000  -0.3000000   0.1000000), wk =   0.0020000
        k(  208) = (  -0.1000000   0.3000000   0.3000000), wk =   0.0020000
        k(  209) = (   0.1000000  -0.3000000   0.3000000), wk =   0.0020000
        k(  210) = (   0.1000000   0.3000000  -0.3000000), wk =   0.0020000
        k(  211) = (  -0.1000000  -0.3000000  -0.3000000), wk =   0.0020000
        k(  212) = (   0.2000000   0.0000000   0.2000000), wk =   0.0020000
        k(  213) = (  -0.2000000   0.0000000   0.2000000), wk =   0.0020000
        k(  214) = (  -0.2000000   0.0000000  -0.2000000), wk =   0.0020000
        k(  215) = (   0.2000000   0.0000000  -0.2000000), wk =   0.0020000
        k(  216) = (   0.0000000   0.2000000  -0.2000000), wk =   0.0020000
        k(  217) = (   0.0000000  -0.2000000  -0.2000000), wk =   0.0020000
        k(  218) = (   0.0000000   0.2000000   0.2000000), wk =   0.0020000
        k(  219) = (   0.0000000  -0.2000000   0.2000000), wk =   0.0020000
        k(  220) = (  -0.2000000   0.2000000   0.0000000), wk =   0.0020000
        k(  221) = (  -0.2000000  -0.2000000   0.0000000), wk =   0.0020000
        k(  222) = (   0.2000000  -0.2000000   0.0000000), wk =   0.0020000
        k(  223) = (   0.2000000   0.2000000   0.0000000), wk =   0.0020000
        k(  224) = (   0.0000000   0.4000000   0.0000000), wk =   0.0020000
        k(  225) = (   0.0000000  -0.4000000   0.0000000), wk =   0.0020000
        k(  226) = (   0.4000000   0.0000000   0.0000000), wk =   0.0020000
        k(  227) = (  -0.4000000   0.0000000   0.0000000), wk =   0.0020000
        k(  228) = (   0.0000000   0.0000000   0.4000000), wk =   0.0020000
        k(  229) = (   0.0000000   0.0000000  -0.4000000), wk =   0.0020000
        k(  230) = (  -0.1000000   0.5000000  -0.1000000), wk =   0.0020000
        k(  231) = (   0.1000000  -0.5000000  -0.1000000), wk =   0.0020000
        k(  232) = (   0.1000000   0.5000000   0.1000000), wk =   0.0020000
        k(  233) = (  -0.1000000  -0.5000000   0.1000000), wk =   0.0020000
        k(  234) = (   0.5000000  -0.1000000   0.1000000), wk =   0.0020000
        k(  235) = (  -0.5000000   0.1000000   0.1000000), wk =   0.0020000
        k(  236) = (  -0.5000000  -0.1000000  -0.1000000), wk =   0.0020000
        k(  237) = (   0.5000000   0.1000000  -0.1000000), wk =   0.0020000
        k(  238) = (  -0.1000000  -0.5000000  -0.1000000), wk =   0.0020000
        k(  239) = (   0.1000000  -0.5000000   0.1000000), wk =   0.0020000
        k(  240) = (   0.1000000   0.5000000  -0.1000000), wk =   0.0020000
        k(  241) = (  -0.1000000   0.5000000   0.1000000), wk =   0.0020000
        k(  242) = (   0.1000000  -0.1000000   0.5000000), wk =   0.0020000
        k(  243) = (   0.1000000   0.1000000  -0.5000000), wk =   0.0020000
        k(  244) = (  -0.1000000   0.1000000   0.5000000), wk =   0.0020000
        k(  245) = (  -0.1000000  -0.1000000  -0.5000000), wk =   0.0020000
        k(  246) = (  -0.1000000  -0.1000000   0.5000000), wk =   0.0020000
        k(  247) = (   0.1000000   0.1000000   0.5000000), wk =   0.0020000
        k(  248) = (   0.1000000  -0.1000000  -0.5000000), wk =   0.0020000
        k(  249) = (  -0.1000000   0.1000000  -0.5000000), wk =   0.0020000
        k(  250) = (   0.5000000  -0.1000000  -0.1000000), wk =   0.0020000
        k(  251) = (  -0.5000000   0.1000000  -0.1000000), wk =   0.0020000
        k(  252) = (  -0.5000000  -0.1000000   0.1000000), wk =   0.0020000
        k(  253) = (   0.5000000   0.1000000   0.1000000), wk =   0.0020000
        k(  254) = (  -0.2000000   0.6000000  -0.2000000), wk =   0.0020000
        k(  255) = (   0.2000000  -0.6000000  -0.2000000), wk =   0.0020000
        k(  256) = (   0.2000000   0.6000000   0.2000000), wk =   0.0020000
        k(  257) = (  -0.2000000  -0.6000000   0.2000000), wk =   0.0020000
        k(  258) = (   0.6000000  -0.2000000   0.2000000), wk =   0.0020000
        k(  259) = (  -0.6000000   0.2000000   0.2000000), wk =   0.0020000
        k(  260) = (  -0.6000000  -0.2000000  -0.2000000), wk =   0.0020000
        k(  261) = (   0.6000000   0.2000000  -0.2000000), wk =   0.0020000
        k(  262) = (  -0.2000000  -0.6000000  -0.2000000), wk =   0.0020000
        k(  263) = (   0.2000000  -0.6000000   0.2000000), wk =   0.0020000
        k(  264) = (   0.2000000   0.6000000  -0.2000000), wk =   0.0020000
        k(  265) = (  -0.2000000   0.6000000   0.2000000), wk =   0.0020000
        k(  266) = (   0.2000000  -0.2000000   0.6000000), wk =   0.0020000
        k(  267) = (   0.2000000   0.2000000  -0.6000000), wk =   0.0020000
        k(  268) = (  -0.2000000   0.2000000   0.6000000), wk =   0.0020000
        k(  269) = (  -0.2000000  -0.2000000  -0.6000000), wk =   0.0020000
        k(  270) = (  -0.2000000  -0.2000000   0.6000000), wk =   0.0020000
        k(  271) = (   0.2000000   0.2000000   0.6000000), wk =   0.0020000
        k(  272) = (   0.2000000  -0.2000000  -0.6000000), wk =   0.0020000
        k(  273) = (  -0.2000000   0.2000000  -0.6000000), wk =   0.0020000
        k(  274) = (   0.6000000  -0.2000000  -0.2000000), wk =   0.0020000
        k(  275) = (  -0.6000000   0.2000000  -0.2000000), wk =   0.0020000
        k(  276) = (  -0.6000000  -0.2000000   0.2000000), wk =   0.0020000
        k(  277) = (   0.6000000   0.2000000   0.2000000), wk =   0.0020000
        k(  278) = (   0.7000000  -0.3000000   0.7000000), wk =   0.0020000
        k(  279) = (  -0.7000000   0.3000000   0.7000000), wk =   0.0020000
        k(  280) = (  -0.7000000  -0.3000000  -0.7000000), wk =   0.0020000
        k(  281) = (   0.7000000   0.3000000  -0.7000000), wk =   0.0020000
        k(  282) = (  -0.3000000   0.7000000  -0.7000000), wk =   0.0020000
        k(  283) = (   0.3000000  -0.7000000  -0.7000000), wk =   0.0020000
        k(  284) = (   0.3000000   0.7000000   0.7000000), wk =   0.0020000
        k(  285) = (  -0.3000000  -0.7000000   0.7000000), wk =   0.0020000
        k(  286) = (   0.7000000   0.3000000   0.7000000), wk =   0.0020000
        k(  287) = (  -0.7000000   0.3000000  -0.7000000), wk =   0.0020000
        k(  288) = (  -0.7000000  -0.3000000   0.7000000), wk =   0.0020000
        k(  289) = (   0.7000000  -0.3000000  -0.7000000), wk =   0.0020000
        k(  290) = (  -0.7000000   0.7000000  -0.3000000), wk =   0.0020000
        k(  291) = (  -0.7000000  -0.7000000   0.3000000), wk =   0.0020000
        k(  292) = (   0.7000000  -0.7000000  -0.3000000), wk =   0.0020000
        k(  293) = (   0.7000000   0.7000000   0.3000000), wk =   0.0020000
        k(  294) = (   0.7000000   0.7000000  -0.3000000), wk =   0.0020000
        k(  295) = (  -0.7000000  -0.7000000  -0.3000000), wk =   0.0020000
        k(  296) = (  -0.7000000   0.7000000   0.3000000), wk =   0.0020000
        k(  297) = (   0.7000000  -0.7000000   0.3000000), wk =   0.0020000
        k(  298) = (  -0.3000000   0.7000000   0.7000000), wk =   0.0020000
        k(  299) = (   0.3000000  -0.7000000   0.7000000), wk =   0.0020000
        k(  300) = (   0.3000000   0.7000000  -0.7000000), wk =   0.0020000
        k(  301) = (  -0.3000000  -0.7000000  -0.7000000), wk =   0.0020000
        k(  302) = (   0.6000000  -0.2000000   0.6000000), wk =   0.0020000
        k(  303) = (  -0.6000000   0.2000000   0.6000000), wk =   0.0020000
        k(  304) = (  -0.6000000  -0.2000000  -0.6000000), wk =   0.0020000
        k(  305) = (   0.6000000   0.2000000  -0.6000000), wk =   0.0020000
        k(  306) = (  -0.2000000   0.6000000  -0.6000000), wk =   0.0020000
        k(  307) = (   0.2000000  -0.6000000  -0.6000000), wk =   0.0020000
        k(  308) = (   0.2000000   0.6000000   0.6000000), wk =   0.0020000
        k(  309) = (  -0.2000000  -0.6000000   0.6000000), wk =   0.0020000
        k(  310) = (   0.6000000   0.2000000   0.6000000), wk =   0.0020000
        k(  311) = (  -0.6000000   0.2000000  -0.6000000), wk =   0.0020000
        k(  312) = (  -0.6000000  -0.2000000   0.6000000), wk =   0.0020000
        k(  313) = (   0.6000000  -0.2000000  -0.6000000), wk =   0.0020000
        k(  314) = (  -0.6000000   0.6000000  -0.2000000), wk =   0.0020000
        k(  315) = (  -0.6000000  -0.6000000   0.2000000), wk =   0.0020000
        k(  316) = (   0.6000000  -0.6000000  -0.2000000), wk =   0.0020000
        k(  317) = (   0.6000000   0.6000000   0.2000000), wk =   0.0020000
        k(  318) = (   0.6000000   0.6000000  -0.2000000), wk =   0.0020000
        k(  319) = (  -0.6000000  -0.6000000  -0.2000000), wk =   0.0020000
        k(  320) = (  -0.6000000   0.6000000   0.2000000), wk =   0.0020000
        k(  321) = (   0.6000000  -0.6000000   0.2000000), wk =   0.0020000
        k(  322) = (  -0.2000000   0.6000000   0.6000000), wk =   0.0020000
        k(  323) = (   0.2000000  -0.6000000   0.6000000), wk =   0.0020000
        k(  324) = (   0.2000000   0.6000000  -0.6000000), wk =   0.0020000
        k(  325) = (  -0.2000000  -0.6000000  -0.6000000), wk =   0.0020000
        k(  326) = (   0.5000000  -0.1000000   0.5000000), wk =   0.0020000
        k(  327) = (  -0.5000000   0.1000000   0.5000000), wk =   0.0020000
        k(  328) = (  -0.5000000  -0.1000000  -0.5000000), wk =   0.0020000
        k(  329) = (   0.5000000   0.1000000  -0.5000000), wk =   0.0020000
        k(  330) = (  -0.1000000   0.5000000  -0.5000000), wk =   0.0020000
        k(  331) = (   0.1000000  -0.5000000  -0.5000000), wk =   0.0020000
        k(  332) = (   0.1000000   0.5000000   0.5000000), wk =   0.0020000
        k(  333) = (  -0.1000000  -0.5000000   0.5000000), wk =   0.0020000
        k(  334) = (   0.5000000   0.1000000   0.5000000), wk =   0.0020000
        k(  335) = (  -0.5000000   0.1000000  -0.5000000), wk =   0.0020000
        k(  336) = (  -0.5000000  -0.1000000   0.5000000), wk =   0.0020000
        k(  337) = (   0.5000000  -0.1000000  -0.5000000), wk =   0.0020000
        k(  338) = (  -0.5000000   0.5000000  -0.1000000), wk =   0.0020000
        k(  339) = (  -0.5000000  -0.5000000   0.1000000), wk =   0.0020000
        k(  340) = (   0.5000000  -0.5000000  -0.1000000), wk =   0.0020000
        k(  341) = (   0.5000000   0.5000000   0.1000000), wk =   0.0020000
        k(  342) = (   0.5000000   0.5000000  -0.1000000), wk =   0.0020000
        k(  343) = (  -0.5000000  -0.5000000  -0.1000000), wk =   0.0020000
        k(  344) = (  -0.5000000   0.5000000   0.1000000), wk =   0.0020000
        k(  345) = (   0.5000000  -0.5000000   0.1000000), wk =   0.0020000
        k(  346) = (  -0.1000000   0.5000000   0.5000000), wk =   0.0020000
        k(  347) = (   0.1000000  -0.5000000   0.5000000), wk =   0.0020000
        k(  348) = (   0.1000000   0.5000000  -0.5000000), wk =   0.0020000
        k(  349) = (  -0.1000000  -0.5000000  -0.5000000), wk =   0.0020000
        k(  350) = (   0.4000000   0.0000000   0.4000000), wk =   0.0020000
        k(  351) = (  -0.4000000   0.0000000   0.4000000), wk =   0.0020000
        k(  352) = (  -0.4000000   0.0000000  -0.4000000), wk =   0.0020000
        k(  353) = (   0.4000000   0.0000000  -0.4000000), wk =   0.0020000
        k(  354) = (   0.0000000   0.4000000  -0.4000000), wk =   0.0020000
        k(  355) = (   0.0000000  -0.4000000  -0.4000000), wk =   0.0020000
        k(  356) = (   0.0000000   0.4000000   0.4000000), wk =   0.0020000
        k(  357) = (   0.0000000  -0.4000000   0.4000000), wk =   0.0020000
        k(  358) = (  -0.4000000   0.4000000   0.0000000), wk =   0.0020000
        k(  359) = (  -0.4000000  -0.4000000   0.0000000), wk =   0.0020000
        k(  360) = (   0.4000000  -0.4000000   0.0000000), wk =   0.0020000
        k(  361) = (   0.4000000   0.4000000   0.0000000), wk =   0.0020000
        k(  362) = (   0.0000000   0.6000000   0.0000000), wk =   0.0020000
        k(  363) = (   0.0000000  -0.6000000   0.0000000), wk =   0.0020000
        k(  364) = (   0.6000000   0.0000000   0.0000000), wk =   0.0020000
        k(  365) = (  -0.6000000   0.0000000   0.0000000), wk =   0.0020000
        k(  366) = (   0.0000000   0.0000000   0.6000000), wk =   0.0020000
        k(  367) = (   0.0000000   0.0000000  -0.6000000), wk =   0.0020000
        k(  368) = (  -0.1000000   0.7000000  -0.1000000), wk =   0.0020000
        k(  369) = (   0.1000000  -0.7000000  -0.1000000), wk =   0.0020000
        k(  370) = (   0.1000000   0.7000000   0.1000000), wk =   0.0020000
        k(  371) = (  -0.1000000  -0.7000000   0.1000000), wk =   0.0020000
        k(  372) = (   0.7000000  -0.1000000   0.1000000), wk =   0.0020000
        k(  373) = (  -0.7000000   0.1000000   0.1000000), wk =   0.0020000
        k(  374) = (  -0.7000000  -0.1000000  -0.1000000), wk =   0.0020000
        k(  375) = (   0.7000000   0.1000000  -0.1000000), wk =   0.0020000
        k(  376) = (  -0.1000000  -0.7000000  -0.1000000), wk =   0.0020000
        k(  377) = (   0.1000000  -0.7000000   0.1000000), wk =   0.0020000
        k(  378) = (   0.1000000   0.7000000  -0.1000000), wk =   0.0020000
        k(  379) = (  -0.1000000   0.7000000   0.1000000), wk =   0.0020000
        k(  380) = (   0.1000000  -0.1000000   0.7000000), wk =   0.0020000
        k(  381) = (   0.1000000   0.1000000  -0.7000000), wk =   0.0020000
        k(  382) = (  -0.1000000   0.1000000   0.7000000), wk =   0.0020000
        k(  383) = (  -0.1000000  -0.1000000  -0.7000000), wk =   0.0020000
        k(  384) = (  -0.1000000  -0.1000000   0.7000000), wk =   0.0020000
        k(  385) = (   0.1000000   0.1000000   0.7000000), wk =   0.0020000
        k(  386) = (   0.1000000  -0.1000000  -0.7000000), wk =   0.0020000
        k(  387) = (  -0.1000000   0.1000000  -0.7000000), wk =   0.0020000
        k(  388) = (   0.7000000  -0.1000000  -0.1000000), wk =   0.0020000
        k(  389) = (  -0.7000000   0.1000000  -0.1000000), wk =   0.0020000
        k(  390) = (  -0.7000000  -0.1000000   0.1000000), wk =   0.0020000
        k(  391) = (   0.7000000   0.1000000   0.1000000), wk =   0.0020000
        k(  392) = (   0.8000000  -0.2000000   0.8000000), wk =   0.0020000
        k(  393) = (  -0.8000000   0.2000000   0.8000000), wk =   0.0020000
        k(  394) = (  -0.8000000  -0.2000000  -0.8000000), wk =   0.0020000
        k(  395) = (   0.8000000   0.2000000  -0.8000000), wk =   0.0020000
        k(  396) = (  -0.2000000   0.8000000  -0.8000000), wk =   0.0020000
        k(  397) = (   0.2000000  -0.8000000  -0.8000000), wk =   0.0020000
        k(  398) = (   0.2000000   0.8000000   0.8000000), wk =   0.0020000
        k(  399) = (  -0.2000000  -0.8000000   0.8000000), wk =   0.0020000
        k(  400) = (   0.8000000   0.2000000   0.8000000), wk =   0.0020000
        k(  401) = (  -0.8000000   0.2000000  -0.8000000), wk =   0.0020000
        k(  402) = (  -0.8000000  -0.2000000   0.8000000), wk =   0.0020000
        k(  403) = (   0.8000000  -0.2000000  -0.8000000), wk =   0.0020000
        k(  404) = (  -0.8000000   0.8000000  -0.2000000), wk =   0.0020000
        k(  405) = (  -0.8000000  -0.8000000   0.2000000), wk =   0.0020000
        k(  406) = (   0.8000000  -0.8000000  -0.2000000), wk =   0.0020000
        k(  407) = (   0.8000000   0.8000000   0.2000000), wk =   0.0020000
        k(  408) = (   0.8000000   0.8000000  -0.2000000), wk =   0.0020000
        k(  409) = (  -0.8000000  -0.8000000  -0.2000000), wk =   0.0020000
        k(  410) = (  -0.8000000   0.8000000   0.2000000), wk =   0.0020000
        k(  411) = (   0.8000000  -0.8000000   0.2000000), wk =   0.0020000
        k(  412) = (  -0.2000000   0.8000000   0.8000000), wk =   0.0020000
        k(  413) = (   0.2000000  -0.8000000   0.8000000), wk =   0.0020000
        k(  414) = (   0.2000000   0.8000000  -0.8000000), wk =   0.0020000
        k(  415) = (  -0.2000000  -0.8000000  -0.8000000), wk =   0.0020000
        k(  416) = (   0.7000000  -0.1000000   0.7000000), wk =   0.0020000
        k(  417) = (  -0.7000000   0.1000000   0.7000000), wk =   0.0020000
        k(  418) = (  -0.7000000  -0.1000000  -0.7000000), wk =   0.0020000
        k(  419) = (   0.7000000   0.1000000  -0.7000000), wk =   0.0020000
        k(  420) = (  -0.1000000   0.7000000  -0.7000000), wk =   0.0020000
        k(  421) = (   0.1000000  -0.7000000  -0.7000000), wk =   0.0020000
        k(  422) = (   0.1000000   0.7000000   0.7000000), wk =   0.0020000
        k(  423) = (  -0.1000000  -0.7000000   0.7000000), wk =   0.0020000
        k(  424) = (   0.7000000   0.1000000   0.7000000), wk =   0.0020000
        k(  425) = (  -0.7000000   0.1000000  -0.7000000), wk =   0.0020000
        k(  426) = (  -0.7000000  -0.1000000   0.7000000), wk =   0.0020000
        k(  427) = (   0.7000000  -0.1000000  -0.7000000), wk =   0.0020000
        k(  428) = (  -0.7000000   0.7000000  -0.1000000), wk =   0.0020000
        k(  429) = (  -0.7000000  -0.7000000   0.1000000), wk =   0.0020000
        k(  430) = (   0.7000000  -0.7000000  -0.1000000), wk =   0.0020000
        k(  431) = (   0.7000000   0.7000000   0.1000000), wk =   0.0020000
        k(  432) = (   0.7000000   0.7000000  -0.1000000), wk =   0.0020000
        k(  433) = (  -0.7000000  -0.7000000  -0.1000000), wk =   0.0020000
        k(  434) = (  -0.7000000   0.7000000   0.1000000), wk =   0.0020000
        k(  435) = (   0.7000000  -0.7000000   0.1000000), wk =   0.0020000
        k(  436) = (  -0.1000000   0.7000000   0.7000000), wk =   0.0020000
        k(  437) = (   0.1000000  -0.7000000   0.7000000), wk =   0.0020000
        k(  438) = (   0.1000000   0.7000000  -0.7000000), wk =   0.0020000
        k(  439) = (  -0.1000000  -0.7000000  -0.7000000), wk =   0.0020000
        k(  440) = (   0.6000000   0.0000000   0.6000000), wk =   0.0020000
        k(  441) = (  -0.6000000   0.0000000   0.6000000), wk =   0.0020000
        k(  442) = (  -0.6000000   0.0000000  -0.6000000), wk =   0.0020000
        k(  443) = (   0.6000000   0.0000000  -0.6000000), wk =   0.0020000
        k(  444) = (   0.0000000   0.6000000  -0.6000000), wk =   0.0020000
        k(  445) = (   0.0000000  -0.6000000  -0.6000000), wk =   0.0020000
        k(  446) = (   0.0000000   0.6000000   0.6000000), wk =   0.0020000
        k(  447) = (   0.0000000  -0.6000000   0.6000000), wk =   0.0020000
        k(  448) = (  -0.6000000   0.6000000   0.0000000), wk =   0.0020000
        k(  449) = (  -0.6000000  -0.6000000   0.0000000), wk =   0.0020000
        k(  450) = (   0.6000000  -0.6000000   0.0000000), wk =   0.0020000
        k(  451) = (   0.6000000   0.6000000   0.0000000), wk =   0.0020000
        k(  452) = (   0.0000000   0.8000000   0.0000000), wk =   0.0020000
        k(  453) = (   0.0000000  -0.8000000   0.0000000), wk =   0.0020000
        k(  454) = (   0.8000000   0.0000000   0.0000000), wk =   0.0020000
        k(  455) = (  -0.8000000   0.0000000   0.0000000), wk =   0.0020000
        k(  456) = (   0.0000000   0.0000000   0.8000000), wk =   0.0020000
        k(  457) = (   0.0000000   0.0000000  -0.8000000), wk =   0.0020000
        k(  458) = (   0.9000000  -0.1000000   0.9000000), wk =   0.0020000
        k(  459) = (  -0.9000000   0.1000000   0.9000000), wk =   0.0020000
        k(  460) = (  -0.9000000  -0.1000000  -0.9000000), wk =   0.0020000
        k(  461) = (   0.9000000   0.1000000  -0.9000000), wk =   0.0020000
        k(  462) = (  -0.1000000   0.9000000  -0.9000000), wk =   0.0020000
        k(  463) = (   0.1000000  -0.9000000  -0.9000000), wk =   0.0020000
        k(  464) = (   0.1000000   0.9000000   0.9000000), wk =   0.0020000
        k(  465) = (  -0.1000000  -0.9000000   0.9000000), wk =   0.0020000
        k(  466) = (   0.9000000   0.1000000   0.9000000), wk =   0.0020000
        k(  467) = (  -0.9000000   0.1000000  -0.9000000), wk =   0.0020000
        k(  468) = (  -0.9000000  -0.1000000   0.9000000), wk =   0.0020000
        k(  469) = (   0.9000000  -0.1000000  -0.9000000), wk =   0.0020000
        k(  470) = (  -0.9000000   0.9000000  -0.1000000), wk =   0.0020000
        k(  471) = (  -0.9000000  -0.9000000   0.1000000), wk =   0.0020000
        k(  472) = (   0.9000000  -0.9000000  -0.1000000), wk =   0.0020000
        k(  473) = (   0.9000000   0.9000000   0.1000000), wk =   0.0020000
        k(  474) = (   0.9000000   0.9000000  -0.1000000), wk =   0.0020000
        k(  475) = (  -0.9000000  -0.9000000  -0.1000000), wk =   0.0020000
        k(  476) = (  -0.9000000   0.9000000   0.1000000), wk =   0.0020000
        k(  477) = (   0.9000000  -0.9000000   0.1000000), wk =   0.0020000
        k(  478) = (  -0.1000000   0.9000000   0.9000000), wk =   0.0020000
        k(  479) = (   0.1000000  -0.9000000   0.9000000), wk =   0.0020000
        k(  480) = (   0.1000000   0.9000000  -0.9000000), wk =   0.0020000
        k(  481) = (  -0.1000000  -0.9000000  -0.9000000), wk =   0.0020000
        k(  482) = (   0.8000000   0.0000000   0.8000000), wk =   0.0020000
        k(  483) = (  -0.8000000   0.0000000   0.8000000), wk =   0.0020000
        k(  484) = (  -0.8000000   0.0000000  -0.8000000), wk =   0.0020000
        k(  485) = (   0.8000000   0.0000000  -0.8000000), wk =   0.0020000
        k(  486) = (   0.0000000   0.8000000  -0.8000000), wk =   0.0020000
        k(  487) = (   0.0000000  -0.8000000  -0.8000000), wk =   0.0020000
        k(  488) = (   0.0000000   0.8000000   0.8000000), wk =   0.0020000
        k(  489) = (   0.0000000  -0.8000000   0.8000000), wk =   0.0020000
        k(  490) = (  -0.8000000   0.8000000   0.0000000), wk =   0.0020000
        k(  491) = (  -0.8000000  -0.8000000   0.0000000), wk =   0.0020000
        k(  492) = (   0.8000000  -0.8000000   0.0000000), wk =   0.0020000
        k(  493) = (   0.8000000   0.8000000   0.0000000), wk =   0.0020000
        k(  494) = (   0.0000000  -1.0000000   0.0000000), wk =   0.0020000
        k(  495) = (  -1.0000000   0.0000000   0.0000000), wk =   0.0020000
        k(  496) = (   0.0000000   0.0000000  -1.0000000), wk =   0.0020000
        k(  497) = (  -0.2000000   0.4000000   0.0000000), wk =   0.0020000
        k(  498) = (   0.2000000  -0.4000000  -0.0000000), wk =   0.0020000
        k(  499) = (   0.2000000   0.4000000   0.0000000), wk =   0.0020000
        k(  500) = (  -0.2000000  -0.4000000   0.0000000), wk =   0.0020000
        k(  501) = (   0.4000000  -0.2000000  -0.0000000), wk =   0.0020000
        k(  502) = (  -0.4000000   0.2000000   0.0000000), wk =   0.0020000
        k(  503) = (  -0.4000000  -0.2000000   0.0000000), wk =   0.0020000
        k(  504) = (   0.4000000   0.2000000   0.0000000), wk =   0.0020000
        k(  505) = (   0.0000000  -0.4000000  -0.2000000), wk =   0.0020000
        k(  506) = (   0.0000000  -0.4000000   0.2000000), wk =   0.0020000
        k(  507) = (   0.0000000   0.4000000  -0.2000000), wk =   0.0020000
        k(  508) = (  -0.0000000   0.4000000   0.2000000), wk =   0.0020000
        k(  509) = (   0.2000000   0.0000000   0.4000000), wk =   0.0020000
        k(  510) = (   0.2000000  -0.0000000  -0.4000000), wk =   0.0020000
        k(  511) = (  -0.2000000   0.0000000   0.4000000), wk =   0.0020000
        k(  512) = (  -0.2000000   0.0000000  -0.4000000), wk =   0.0020000
        k(  513) = (   0.0000000  -0.2000000   0.4000000), wk =   0.0020000
        k(  514) = (  -0.0000000   0.2000000   0.4000000), wk =   0.0020000
        k(  515) = (   0.0000000  -0.2000000  -0.4000000), wk =   0.0020000
        k(  516) = (   0.0000000   0.2000000  -0.4000000), wk =   0.0020000
        k(  517) = (   0.4000000  -0.0000000  -0.2000000), wk =   0.0020000
        k(  518) = (  -0.4000000   0.0000000  -0.2000000), wk =   0.0020000
        k(  519) = (  -0.4000000   0.0000000   0.2000000), wk =   0.0020000
        k(  520) = (   0.4000000   0.0000000   0.2000000), wk =   0.0020000
        k(  521) = (  -0.3000000   0.5000000  -0.1000000), wk =   0.0020000
        k(  522) = (   0.3000000  -0.5000000  -0.1000000), wk =   0.0020000
        k(  523) = (   0.3000000   0.5000000   0.1000000), wk =   0.0020000
        k(  524) = (  -0.3000000  -0.5000000   0.1000000), wk =   0.0020000
        k(  525) = (   0.5000000  -0.3000000   0.1000000), wk =   0.0020000
        k(  526) = (  -0.5000000   0.3000000   0.1000000), wk =   0.0020000
        k(  527) = (  -0.5000000  -0.3000000  -0.1000000), wk =   0.0020000
        k(  528) = (   0.5000000   0.3000000  -0.1000000), wk =   0.0020000
        k(  529) = (  -0.1000000  -0.5000000  -0.3000000), wk =   0.0020000
        k(  530) = (   0.1000000  -0.5000000   0.3000000), wk =   0.0020000
        k(  531) = (   0.1000000   0.5000000  -0.3000000), wk =   0.0020000
        k(  532) = (  -0.1000000   0.5000000   0.3000000), wk =   0.0020000
        k(  533) = (   0.3000000  -0.1000000   0.5000000), wk =   0.0020000
        k(  534) = (   0.3000000   0.1000000  -0.5000000), wk =   0.0020000
        k(  535) = (  -0.3000000   0.1000000   0.5000000), wk =   0.0020000
        k(  536) = (  -0.3000000  -0.1000000  -0.5000000), wk =   0.0020000
        k(  537) = (  -0.1000000  -0.3000000   0.5000000), wk =   0.0020000
        k(  538) = (   0.1000000   0.3000000   0.5000000), wk =   0.0020000
        k(  539) = (   0.1000000  -0.3000000  -0.5000000), wk =   0.0020000
        k(  540) = (  -0.1000000   0.3000000  -0.5000000), wk =   0.0020000
        k(  541) = (   0.5000000  -0.1000000  -0.3000000), wk =   0.0020000
        k(  542) = (  -0.5000000   0.1000000  -0.3000000), wk =   0.0020000
        k(  543) = (  -0.5000000  -0.1000000   0.3000000), wk =   0.0020000
        k(  544) = (   0.5000000   0.1000000   0.3000000), wk =   0.0020000
        k(  545) = (   0.3000000  -0.5000000   0.1000000), wk =   0.0020000
        k(  546) = (  -0.3000000   0.5000000   0.1000000), wk =   0.0020000
        k(  547) = (  -0.3000000  -0.5000000  -0.1000000), wk =   0.0020000
        k(  548) = (   0.3000000   0.5000000  -0.1000000), wk =   0.0020000
        k(  549) = (  -0.5000000   0.3000000  -0.1000000), wk =   0.0020000
        k(  550) = (   0.5000000  -0.3000000  -0.1000000), wk =   0.0020000
        k(  551) = (   0.5000000   0.3000000   0.1000000), wk =   0.0020000
        k(  552) = (  -0.5000000  -0.3000000   0.1000000), wk =   0.0020000
        k(  553) = (   0.1000000   0.5000000   0.3000000), wk =   0.0020000
        k(  554) = (  -0.1000000   0.5000000  -0.3000000), wk =   0.0020000
        k(  555) = (  -0.1000000  -0.5000000   0.3000000), wk =   0.0020000
        k(  556) = (   0.1000000  -0.5000000  -0.3000000), wk =   0.0020000
        k(  557) = (  -0.3000000   0.1000000  -0.5000000), wk =   0.0020000
        k(  558) = (  -0.3000000  -0.1000000   0.5000000), wk =   0.0020000
        k(  559) = (   0.3000000  -0.1000000  -0.5000000), wk =   0.0020000
        k(  560) = (   0.3000000   0.1000000   0.5000000), wk =   0.0020000
        k(  561) = (   0.1000000   0.3000000  -0.5000000), wk =   0.0020000
        k(  562) = (  -0.1000000  -0.3000000  -0.5000000), wk =   0.0020000
        k(  563) = (  -0.1000000   0.3000000   0.5000000), wk =   0.0020000
        k(  564) = (   0.1000000  -0.3000000   0.5000000), wk =   0.0020000
        k(  565) = (  -0.5000000   0.1000000   0.3000000), wk =   0.0020000
        k(  566) = (   0.5000000  -0.1000000   0.3000000), wk =   0.0020000
        k(  567) = (   0.5000000   0.1000000  -0.3000000), wk =   0.0020000
        k(  568) = (  -0.5000000  -0.1000000  -0.3000000), wk =   0.0020000
        k(  569) = (   0.6000000  -0.4000000   0.8000000), wk =   0.0020000
        k(  570) = (  -0.6000000   0.4000000   0.8000000), wk =   0.0020000
        k(  571) = (  -0.6000000  -0.4000000  -0.8000000), wk =   0.0020000
        k(  572) = (   0.6000000   0.4000000  -0.8000000), wk =   0.0020000
        k(  573) = (  -0.4000000   0.6000000  -0.8000000), wk =   0.0020000
        k(  574) = (   0.4000000  -0.6000000  -0.8000000), wk =   0.0020000
        k(  575) = (   0.4000000   0.6000000   0.8000000), wk =   0.0020000
        k(  576) = (  -0.4000000  -0.6000000   0.8000000), wk =   0.0020000
        k(  577) = (   0.8000000   0.4000000   0.6000000), wk =   0.0020000
        k(  578) = (  -0.8000000   0.4000000  -0.6000000), wk =   0.0020000
        k(  579) = (  -0.8000000  -0.4000000   0.6000000), wk =   0.0020000
        k(  580) = (   0.8000000  -0.4000000  -0.6000000), wk =   0.0020000
        k(  581) = (  -0.6000000   0.8000000  -0.4000000), wk =   0.0020000
        k(  582) = (  -0.6000000  -0.8000000   0.4000000), wk =   0.0020000
        k(  583) = (   0.6000000  -0.8000000  -0.4000000), wk =   0.0020000
        k(  584) = (   0.6000000   0.8000000   0.4000000), wk =   0.0020000
        k(  585) = (   0.8000000   0.6000000  -0.4000000), wk =   0.0020000
        k(  586) = (  -0.8000000  -0.6000000  -0.4000000), wk =   0.0020000
        k(  587) = (  -0.8000000   0.6000000   0.4000000), wk =   0.0020000
        k(  588) = (   0.8000000  -0.6000000   0.4000000), wk =   0.0020000
        k(  589) = (  -0.4000000   0.8000000   0.6000000), wk =   0.0020000
        k(  590) = (   0.4000000  -0.8000000   0.6000000), wk =   0.0020000
        k(  591) = (   0.4000000   0.8000000  -0.6000000), wk =   0.0020000
        k(  592) = (  -0.4000000  -0.8000000  -0.6000000), wk =   0.0020000
        k(  593) = (  -0.6000000   0.4000000  -0.8000000), wk =   0.0020000
        k(  594) = (   0.6000000  -0.4000000  -0.8000000), wk =   0.0020000
        k(  595) = (   0.6000000   0.4000000   0.8000000), wk =   0.0020000
        k(  596) = (  -0.6000000  -0.4000000   0.8000000), wk =   0.0020000
        k(  597) = (   0.4000000  -0.6000000   0.8000000), wk =   0.0020000
        k(  598) = (  -0.4000000   0.6000000   0.8000000), wk =   0.0020000
        k(  599) = (  -0.4000000  -0.6000000  -0.8000000), wk =   0.0020000
        k(  600) = (   0.4000000   0.6000000  -0.8000000), wk =   0.0020000
        k(  601) = (  -0.8000000  -0.4000000  -0.6000000), wk =   0.0020000
        k(  602) = (   0.8000000  -0.4000000   0.6000000), wk =   0.0020000
        k(  603) = (   0.8000000   0.4000000  -0.6000000), wk =   0.0020000
        k(  604) = (  -0.8000000   0.4000000   0.6000000), wk =   0.0020000
        k(  605) = (   0.6000000  -0.8000000   0.4000000), wk =   0.0020000
        k(  606) = (   0.6000000   0.8000000  -0.4000000), wk =   0.0020000
        k(  607) = (  -0.6000000   0.8000000   0.4000000), wk =   0.0020000
        k(  608) = (  -0.6000000  -0.8000000  -0.4000000), wk =   0.0020000
        k(  609) = (  -0.8000000  -0.6000000   0.4000000), wk =   0.0020000
        k(  610) = (   0.8000000   0.6000000   0.4000000), wk =   0.0020000
        k(  611) = (   0.8000000  -0.6000000  -0.4000000), wk =   0.0020000
        k(  612) = (  -0.8000000   0.6000000  -0.4000000), wk =   0.0020000
        k(  613) = (   0.4000000  -0.8000000  -0.6000000), wk =   0.0020000
        k(  614) = (  -0.4000000   0.8000000  -0.6000000), wk =   0.0020000
        k(  615) = (  -0.4000000  -0.8000000   0.6000000), wk =   0.0020000
        k(  616) = (   0.4000000   0.8000000   0.6000000), wk =   0.0020000
        k(  617) = (   0.5000000  -0.3000000   0.7000000), wk =   0.0020000
        k(  618) = (  -0.5000000   0.3000000   0.7000000), wk =   0.0020000
        k(  619) = (  -0.5000000  -0.3000000  -0.7000000), wk =   0.0020000
        k(  620) = (   0.5000000   0.3000000  -0.7000000), wk =   0.0020000
        k(  621) = (  -0.3000000   0.5000000  -0.7000000), wk =   0.0020000
        k(  622) = (   0.3000000  -0.5000000  -0.7000000), wk =   0.0020000
        k(  623) = (   0.3000000   0.5000000   0.7000000), wk =   0.0020000
        k(  624) = (  -0.3000000  -0.5000000   0.7000000), wk =   0.0020000
        k(  625) = (   0.7000000   0.3000000   0.5000000), wk =   0.0020000
        k(  626) = (  -0.7000000   0.3000000  -0.5000000), wk =   0.0020000
        k(  627) = (  -0.7000000  -0.3000000   0.5000000), wk =   0.0020000
        k(  628) = (   0.7000000  -0.3000000  -0.5000000), wk =   0.0020000
        k(  629) = (  -0.5000000   0.3000000  -0.7000000), wk =   0.0020000
        k(  630) = (   0.5000000  -0.3000000  -0.7000000), wk =   0.0020000
        k(  631) = (   0.5000000   0.3000000   0.7000000), wk =   0.0020000
        k(  632) = (  -0.5000000  -0.3000000   0.7000000), wk =   0.0020000
        k(  633) = (   0.3000000  -0.5000000   0.7000000), wk =   0.0020000
        k(  634) = (  -0.3000000   0.5000000   0.7000000), wk =   0.0020000
        k(  635) = (  -0.3000000  -0.5000000  -0.7000000), wk =   0.0020000
        k(  636) = (   0.3000000   0.5000000  -0.7000000), wk =   0.0020000
        k(  637) = (  -0.7000000  -0.3000000  -0.5000000), wk =   0.0020000
        k(  638) = (   0.7000000  -0.3000000   0.5000000), wk =   0.0020000
        k(  639) = (   0.7000000   0.3000000  -0.5000000), wk =   0.0020000
        k(  640) = (  -0.7000000   0.3000000   0.5000000), wk =   0.0020000
        k(  641) = (  -0.2000000   0.6000000   0.0000000), wk =   0.0020000
        k(  642) = (   0.2000000  -0.6000000   0.0000000), wk =   0.0020000
        k(  643) = (   0.2000000   0.6000000  -0.0000000), wk =   0.0020000
        k(  644) = (  -0.2000000  -0.6000000   0.0000000), wk =   0.0020000
        k(  645) = (   0.6000000  -0.2000000   0.0000000), wk =   0.0020000
        k(  646) = (  -0.6000000   0.2000000   0.0000000), wk =   0.0020000
        k(  647) = (  -0.6000000  -0.2000000  -0.0000000), wk =   0.0020000
        k(  648) = (   0.6000000   0.2000000   0.0000000), wk =   0.0020000
        k(  649) = (  -0.0000000  -0.6000000  -0.2000000), wk =   0.0020000
        k(  650) = (  -0.0000000  -0.6000000   0.2000000), wk =   0.0020000
        k(  651) = (   0.0000000   0.6000000  -0.2000000), wk =   0.0020000
        k(  652) = (   0.0000000   0.6000000   0.2000000), wk =   0.0020000
        k(  653) = (   0.2000000  -0.0000000   0.6000000), wk =   0.0020000
        k(  654) = (   0.2000000   0.0000000  -0.6000000), wk =   0.0020000
        k(  655) = (  -0.2000000  -0.0000000   0.6000000), wk =   0.0020000
        k(  656) = (  -0.2000000   0.0000000  -0.6000000), wk =   0.0020000
        k(  657) = (   0.0000000  -0.2000000   0.6000000), wk =   0.0020000
        k(  658) = (   0.0000000   0.2000000   0.6000000), wk =   0.0020000
        k(  659) = (  -0.0000000  -0.2000000  -0.6000000), wk =   0.0020000
        k(  660) = (  -0.0000000   0.2000000  -0.6000000), wk =   0.0020000
        k(  661) = (   0.6000000   0.0000000  -0.2000000), wk =   0.0020000
        k(  662) = (  -0.6000000  -0.0000000  -0.2000000), wk =   0.0020000
        k(  663) = (  -0.6000000  -0.0000000   0.2000000), wk =   0.0020000
        k(  664) = (   0.6000000   0.0000000   0.2000000), wk =   0.0020000
        k(  665) = (   0.7000000  -0.3000000   0.9000000), wk =   0.0020000
        k(  666) = (  -0.7000000   0.3000000   0.9000000), wk =   0.0020000
        k(  667) = (  -0.7000000  -0.3000000  -0.9000000), wk =   0.0020000
        k(  668) = (   0.7000000   0.3000000  -0.9000000), wk =   0.0020000
        k(  669) = (  -0.3000000   0.7000000  -0.9000000), wk =   0.0020000
        k(  670) = (   0.3000000  -0.7000000  -0.9000000), wk =   0.0020000
        k(  671) = (   0.3000000   0.7000000   0.9000000), wk =   0.0020000
        k(  672) = (  -0.3000000  -0.7000000   0.9000000), wk =   0.0020000
        k(  673) = (   0.9000000   0.3000000   0.7000000), wk =   0.0020000
        k(  674) = (  -0.9000000   0.3000000  -0.7000000), wk =   0.0020000
        k(  675) = (  -0.9000000  -0.3000000   0.7000000), wk =   0.0020000
        k(  676) = (   0.9000000  -0.3000000  -0.7000000), wk =   0.0020000
        k(  677) = (  -0.7000000   0.9000000  -0.3000000), wk =   0.0020000
        k(  678) = (  -0.7000000  -0.9000000   0.3000000), wk =   0.0020000
        k(  679) = (   0.7000000  -0.9000000  -0.3000000), wk =   0.0020000
        k(  680) = (   0.7000000   0.9000000   0.3000000), wk =   0.0020000
        k(  681) = (   0.9000000   0.7000000  -0.3000000), wk =   0.0020000
        k(  682) = (  -0.9000000  -0.7000000  -0.3000000), wk =   0.0020000
        k(  683) = (  -0.9000000   0.7000000   0.3000000), wk =   0.0020000
        k(  684) = (   0.9000000  -0.7000000   0.3000000), wk =   0.0020000
        k(  685) = (  -0.3000000   0.9000000   0.7000000), wk =   0.0020000
        k(  686) = (   0.3000000  -0.9000000   0.7000000), wk =   0.0020000
        k(  687) = (   0.3000000   0.9000000  -0.7000000), wk =   0.0020000
        k(  688) = (  -0.3000000  -0.9000000  -0.7000000), wk =   0.0020000
        k(  689) = (  -0.7000000   0.3000000  -0.9000000), wk =   0.0020000
        k(  690) = (   0.7000000  -0.3000000  -0.9000000), wk =   0.0020000
        k(  691) = (   0.7000000   0.3000000   0.9000000), wk =   0.0020000
        k(  692) = (  -0.7000000  -0.3000000   0.9000000), wk =   0.0020000
        k(  693) = (   0.3000000  -0.7000000   0.9000000), wk =   0.0020000
        k(  694) = (  -0.3000000   0.7000000   0.9000000), wk =   0.0020000
        k(  695) = (  -0.3000000  -0.7000000  -0.9000000), wk =   0.0020000
        k(  696) = (   0.3000000   0.7000000  -0.9000000), wk =   0.0020000
        k(  697) = (  -0.9000000  -0.3000000  -0.7000000), wk =   0.0020000
        k(  698) = (   0.9000000  -0.3000000   0.7000000), wk =   0.0020000
        k(  699) = (   0.9000000   0.3000000  -0.7000000), wk =   0.0020000
        k(  700) = (  -0.9000000   0.3000000   0.7000000), wk =   0.0020000
        k(  701) = (   0.7000000  -0.9000000   0.3000000), wk =   0.0020000
        k(  702) = (   0.7000000   0.9000000  -0.3000000), wk =   0.0020000
        k(  703) = (  -0.7000000   0.9000000   0.3000000), wk =   0.0020000
        k(  704) = (  -0.7000000  -0.9000000  -0.3000000), wk =   0.0020000
        k(  705) = (  -0.9000000  -0.7000000   0.3000000), wk =   0.0020000
        k(  706) = (   0.9000000   0.7000000   0.3000000), wk =   0.0020000
        k(  707) = (   0.9000000  -0.7000000  -0.3000000), wk =   0.0020000
        k(  708) = (  -0.9000000   0.7000000  -0.3000000), wk =   0.0020000
        k(  709) = (   0.3000000  -0.9000000  -0.7000000), wk =   0.0020000
        k(  710) = (  -0.3000000   0.9000000  -0.7000000), wk =   0.0020000
        k(  711) = (  -0.3000000  -0.9000000   0.7000000), wk =   0.0020000
        k(  712) = (   0.3000000   0.9000000   0.7000000), wk =   0.0020000
        k(  713) = (   0.6000000  -0.2000000   0.8000000), wk =   0.0020000
        k(  714) = (  -0.6000000   0.2000000   0.8000000), wk =   0.0020000
        k(  715) = (  -0.6000000  -0.2000000  -0.8000000), wk =   0.0020000
[...]
     0.0000   0.0000

          k =-1.0000 0.0000-0.2000 (  1380 PWs)   bands (ev):

   -39.4622 -18.5255  -2.5510  -0.9635  -0.6802  14.3505  15.5321  16.9704
    19.2734  21.1894

     occupation numbers 
     1.0000   1.0000   1.0000   1.0000   1.0000   0.0000   0.0000   0.0000
     0.0000   0.0000

          k = 1.0000 0.0000 0.2000 (  1380 PWs)   bands (ev):

   -39.4622 -18.5255  -2.5510  -0.9635  -0.6802  14.3505  15.5321  16.9704
    19.2734  21.1894

     occupation numbers 
     1.0000   1.0000   1.0000   1.0000   1.0000   0.0000   0.0000   0.0000
     0.0000   0.0000

          k = 0.6000-0.2000 1.0000 (  1382 PWs)   bands (ev):

   -39.4659 -18.5964  -1.9723  -1.3731  -0.4394  13.4606  14.9614  17.7610
    18.8074  24.8524

     occupation numbers 
     1.0000   1.0000   1.0000   1.0000   1.0000   0.0000   0.0000   0.0000
     0.0000   0.0000

          k =-0.6000 0.2000 1.0000 (  1382 PWs)   bands (ev):

   -39.4659 -18.5964  -1.9723  -1.3731  -0.4394  13.4606  14.9614  17.7610
    18.8074  24.8524

     occupation numbers 
     1.0000   1.0000   1.0000   1.0000   1.0000   0.0000   0.0000   0.0000
     0.0000   0.0000

          k =-0.6000-0.2000-1.0000 (  1382 PWs)   bands (ev):

   -39.4659 -18.5964  -1.9723  -1.3731  -0.4394  13.4606  14.9614  17.7610
    18.8074  24.8524

     occupation numbers 
     1.0000   1.0000   1.0000   1.0000   1.0000   0.0000   0.0000   0.0000
     0.0000   0.0000

          k = 0.6000 0.2000-1.0000 (  1382 PWs)   bands (ev):

   -39.4659 -18.5964  -1.9723  -1.3731  -0.4394  13.4606  14.9614  17.7610
    18.8074  24.8524

     occupation numbers 
     1.0000   1.0000   1.0000   1.0000   1.0000   0.0000   0.0000   0.0000
     0.0000   0.0000

          k =-0.2000 0.6000-1.0000 (  1382 PWs)   bands (ev):

   -39.4659 -18.5964  -1.9723  -1.3731  -0.4394  13.4606  14.9614  17.7610
    18.8074  24.8524

     occupation numbers 
     1.0000   1.0000   1.0000   1.0000   1.0000   0.0000   0.0000   0.0000
     0.0000   0.0000

          k = 0.2000-0.6000-1.0000 (  1382 PWs)   bands (ev):

   -39.4659 -18.5964  -1.9723  -1.3731  -0.4394  13.4606  14.9614  17.7610
    18.8074  24.8524

     occupation numbers 
     1.0000   1.0000   1.0000   1.0000   1.0000   0.0000   0.0000   0.0000
     0.0000   0.0000

          k = 0.2000 0.6000 1.0000 (  1382 PWs)   bands (ev):

   -39.4659 -18.5964  -1.9723  -1.3731  -0.4394  13.4606  14.9614  17.7610
    18.8074  24.8524

     occupation numbers 
     1.0000   1.0000   1.0000   1.0000   1.0000   0.0000   0.0000   0.0000
     0.0000   0.0000

          k =-0.2000-0.6000 1.0000 (  1382 PWs)   bands (ev):

   -39.4659 -18.5964  -1.9723  -1.3731  -0.4394  13.4606  14.9614  17.7610
    18.8074  24.8524

     occupation numbers 
     1.0000   1.0000   1.0000   1.0000   1.0000   0.0000   0.0000   0.0000
     0.0000   0.0000

          k = 1.0000 0.2000 0.6000 (  1382 PWs)   bands (ev):

   -39.4659 -18.5964  -1.9723  -1.3731  -0.4394  13.4606  14.9614  17.7610
    18.8074  24.8524

     occupation numbers 
     1.0000   1.0000   1.0000   1.0000   1.0000   0.0000   0.0000   0.0000
     0.0000   0.0000

          k =-1.0000 0.2000-0.6000 (  1382 PWs)   bands (ev):

   -39.4659 -18.5964  -1.9723  -1.3731  -0.4394  13.4606  14.9614  17.7610
    18.8074  24.8524

     occupation numbers 
     1.0000   1.0000   1.0000   1.0000   1.0000   0.0000   0.0000   0.0000
     0.0000   0.0000

          k =-1.0000-0.2000 0.6000 (  1382 PWs)   bands (ev):

   -39.4659 -18.5964  -1.9723  -1.3731  -0.4394  13.4606  14.9614  17.7610
    18.8074  24.8524

     occupation numbers 
     1.0000   1.0000   1.0000   1.0000   1.0000   0.0000   0.0000   0.0000
     0.0000   0.0000

          k = 1.0000-0.2000-0.6000 (  1382 PWs)   bands (ev):

   -39.4659 -18.5964  -1.9723  -1.3731  -0.4394  13.4606  14.9614  17.7610
    18.8074  24.8524

     occupation numbers 
     1.0000   1.0000   1.0000   1.0000   1.0000   0.0000   0.0000   0.0000
     0.0000   0.0000

          k =-0.6000 1.0000-0.2000 (  1382 PWs)   bands (ev):

   -39.4659 -18.5964  -1.9723  -1.3731  -0.4394  13.4606  14.9614  17.7610
    18.8074  24.8524

     occupation numbers 
     1.0000   1.0000   1.0000   1.0000   1.0000   0.0000   0.0000   0.0000
     0.0000   0.0000

          k =-0.6000-1.0000 0.2000 (  1382 PWs)   bands (ev):

   -39.4659 -18.5964  -1.9723  -1.3731  -0.4394  13.4606  14.9614  17.7610
    18.8074  24.8524

     occupation numbers 
     1.0000   1.0000   1.0000   1.0000   1.0000   0.0000   0.0000   0.0000
     0.0000   0.0000

          k = 0.6000-1.0000-0.2000 (  1382 PWs)   bands (ev):

   -39.4659 -18.5964  -1.9723  -1.3731  -0.4394  13.4606  14.9614  17.7610
    18.8074  24.8524

     occupation numbers 
     1.0000   1.0000   1.0000   1.0000   1.0000   0.0000   0.0000   0.0000
     0.0000   0.0000

          k = 0.6000 1.0000 0.2000 (  1382 PWs)   bands (ev):

   -39.4659 -18.5964  -1.9723  -1.3731  -0.4394  13.4606  14.9614  17.7610
    18.8074  24.8524

     occupation numbers 
     1.0000   1.0000   1.0000   1.0000   1.0000   0.0000   0.0000   0.0000
     0.0000   0.0000

          k = 1.0000 0.6000-0.2000 (  1382 PWs)   bands (ev):

   -39.4659 -18.5964  -1.9723  -1.3731  -0.4394  13.4606  14.9614  17.7610
    18.8074  24.8524

     occupation numbers 
     1.0000   1.0000   1.0000   1.0000   1.0000   0.0000   0.0000   0.0000
     0.0000   0.0000

          k =-1.0000-0.6000-0.2000 (  1382 PWs)   bands (ev):

   -39.4659 -18.5964  -1.9723  -1.3731  -0.4394  13.4606  14.9614  17.7610
    18.8074  24.8524

     occupation numbers 
     1.0000   1.0000   1.0000   1.0000   1.0000   0.0000   0.0000   0.0000
     0.0000   0.0000

          k =-1.0000 0.6000 0.2000 (  1382 PWs)   bands (ev):

   -39.4659 -18.5964  -1.9723  -1.3731  -0.4394  13.4606  14.9614  17.7610
    18.8074  24.8524

     occupation numbers 
     1.0000   1.0000   1.0000   1.0000   1.0000   0.0000   0.0000   0.0000
     0.0000   0.0000

          k = 1.0000-0.6000 0.2000 (  1382 PWs)   bands (ev):

   -39.4659 -18.5964  -1.9723  -1.3731  -0.4394  13.4606  14.9614  17.7610
    18.8074  24.8524

     occupation numbers 
     1.0000   1.0000   1.0000   1.0000   1.0000   0.0000   0.0000   0.0000
     0.0000   0.0000

          k =-0.2000 1.0000 0.6000 (  1382 PWs)   bands (ev):

   -39.4659 -18.5964  -1.9723  -1.3731  -0.4394  13.4606  14.9614  17.7610
    18.8074  24.8524

     occupation numbers 
     1.0000   1.0000   1.0000   1.0000   1.0000   0.0000   0.0000   0.0000
     0.0000   0.0000

          k = 0.2000-1.0000 0.6000 (  1382 PWs)   bands (ev):

   -39.4659 -18.5964  -1.9723  -1.3731  -0.4394  13.4606  14.9614  17.7610
    18.8074  24.8524

     occupation numbers 
     1.0000   1.0000   1.0000   1.0000   1.0000   0.0000   0.0000   0.0000
     0.0000   0.0000

          k = 0.2000 1.0000-0.6000 (  1382 PWs)   bands (ev):

   -39.4659 -18.5964  -1.9723  -1.3731  -0.4394  13.4606  14.9614  17.7610
    18.8074  24.8524

     occupation numbers 
     1.0000   1.0000   1.0000   1.0000   1.0000   0.0000   0.0000   0.0000
     0.0000   0.0000

          k =-0.2000-1.0000-0.6000 (  1382 PWs)   bands (ev):

   -39.4659 -18.5964  -1.9723  -1.3731  -0.4394  13.4606  14.9614  17.7610
    18.8074  24.8524

     occupation numbers 
     1.0000   1.0000   1.0000   1.0000   1.0000   0.0000   0.0000   0.0000
     0.0000   0.0000

          k = 0.5000-0.1000 0.9000 (  1392 PWs)   bands (ev):

   -39.4631 -18.5660  -1.8588  -1.6543  -0.4827  13.9332  14.7223  17.5014
    18.6973  26.6564

     occupation numbers 
     1.0000   1.0000   1.0000   1.0000   1.0000   0.0000   0.0000   0.0000
     0.0000   0.0000

          k =-0.5000 0.1000 0.9000 (  1392 PWs)   bands (ev):

   -39.4631 -18.5660  -1.8588  -1.6543  -0.4827  13.9332  14.7223  17.5014
    18.6973  26.6564

     occupation numbers 
     1.0000   1.0000   1.0000   1.0000   1.0000   0.0000   0.0000   0.0000
     0.0000   0.0000

          k =-0.5000-0.1000-0.9000 (  1392 PWs)   bands (ev):

   -39.4631 -18.5660  -1.8588  -1.6543  -0.4827  13.9332  14.7223  17.5014
    18.6973  26.6564

     occupation numbers 
     1.0000   1.0000   1.0000   1.0000   1.0000   0.0000   0.0000   0.0000
     0.0000   0.0000

          k = 0.5000 0.1000-0.9000 (  1392 PWs)   bands (ev):

   -39.4631 -18.5660  -1.8588  -1.6543  -0.4827  13.9332  14.7223  17.5014
    18.6973  26.6564

     occupation numbers 
     1.0000   1.0000   1.0000   1.0000   1.0000   0.0000   0.0000   0.0000
     0.0000   0.0000

          k =-0.1000 0.5000-0.9000 (  1392 PWs)   bands (ev):

   -39.4631 -18.5660  -1.8588  -1.6543  -0.4827  13.9332  14.7223  17.5014
    18.6973  26.6564

     occupation numbers 
     1.0000   1.0000   1.0000   1.0000   1.0000   0.0000   0.0000   0.0000
     0.0000   0.0000

          k = 0.1000-0.5000-0.9000 (  1392 PWs)   bands (ev):

   -39.4631 -18.5660  -1.8588  -1.6543  -0.4827  13.9332  14.7223  17.5014
    18.6973  26.6564

     occupation numbers 
     1.0000   1.0000   1.0000   1.0000   1.0000   0.0000   0.0000   0.0000
     0.0000   0.0000

          k = 0.1000 0.5000 0.9000 (  1392 PWs)   bands (ev):

   -39.4631 -18.5660  -1.8588  -1.6543  -0.4827  13.9332  14.7223  17.5014
    18.6973  26.6564

     occupation numbers 
     1.0000   1.0000   1.0000   1.0000   1.0000   0.0000   0.0000   0.0000
     0.0000   0.0000

          k =-0.1000-0.5000 0.9000 (  1392 PWs)   bands (ev):

   -39.4631 -18.5660  -1.8588  -1.6543  -0.4827  13.9332  14.7223  17.5014
    18.6973  26.6564

     occupation numbers 
     1.0000   1.0000   1.0000   1.0000   1.0000   0.0000   0.0000   0.0000
     0.0000   0.0000

          k = 0.9000 0.1000 0.5000 (  1392 PWs)   bands (ev):

   -39.4631 -18.5660  -1.8588  -1.6543  -0.4827  13.9332  14.7223  17.5014
    18.6973  26.6564

     occupation numbers 
     1.0000   1.0000   1.0000   1.0000   1.0000   0.0000   0.0000   0.0000
     0.0000   0.0000

          k =-0.9000 0.1000-0.5000 (  1392 PWs)   bands (ev):

   -39.4631 -18.5660  -1.8588  -1.6543  -0.4827  13.9332  14.7223  17.5014
    18.6973  26.6564

     occupation numbers 
     1.0000   1.0000   1.0000   1.0000   1.0000   0.0000   0.0000   0.0000
     0.0000   0.0000

          k =-0.9000-0.1000 0.5000 (  1392 PWs)   bands (ev):

   -39.4631 -18.5660  -1.8588  -1.6543  -0.4827  13.9332  14.7223  17.5014
    18.6973  26.6564

     occupation numbers 
     1.0000   1.0000   1.0000   1.0000   1.0000   0.0000   0.0000   0.0000
     0.0000   0.0000

          k = 0.9000-0.1000-0.5000 (  1392 PWs)   bands (ev):

   -39.4631 -18.5660  -1.8588  -1.6543  -0.4827  13.9332  14.7223  17.5014
    18.6973  26.6564

     occupation numbers 
     1.0000   1.0000   1.0000   1.0000   1.0000   0.0000   0.0000   0.0000
     0.0000   0.0000

          k =-0.5000 0.1000-0.9000 (  1392 PWs)   bands (ev):

   -39.4631 -18.5660  -1.8588  -1.6543  -0.4827  13.9332  14.7223  17.5014
    18.6973  26.6564

     occupation numbers 
     1.0000   1.0000   1.0000   1.0000   1.0000   0.0000   0.0000   0.0000
     0.0000   0.0000

          k = 0.5000-0.1000-0.9000 (  1392 PWs)   bands (ev):

   -39.4631 -18.5660  -1.8588  -1.6543  -0.4827  13.9332  14.7223  17.5014
    18.6973  26.6564

     occupation numbers 
     1.0000   1.0000   1.0000   1.0000   1.0000   0.0000   0.0000   0.0000
     0.0000   0.0000

          k = 0.5000 0.1000 0.9000 (  1392 PWs)   bands (ev):

   -39.4631 -18.5660  -1.8588  -1.6543  -0.4827  13.9332  14.7223  17.5014
    18.6973  26.6564

     occupation numbers 
     1.0000   1.0000   1.0000   1.0000   1.0000   0.0000   0.0000   0.0000
     0.0000   0.0000

          k =-0.5000-0.1000 0.9000 (  1392 PWs)   bands (ev):

   -39.4631 -18.5660  -1.8588  -1.6543  -0.4827  13.9332  14.7223  17.5014
    18.6973  26.6564

     occupation numbers 
     1.0000   1.0000   1.0000   1.0000   1.0000   0.0000   0.0000   0.0000
     0.0000   0.0000

          k = 0.1000-0.5000 0.9000 (  1392 PWs)   bands (ev):

   -39.4631 -18.5660  -1.8588  -1.6543  -0.4827  13.9332  14.7223  17.5014
    18.6973  26.6564

     occupation numbers 
     1.0000   1.0000   1.0000   1.0000   1.0000   0.0000   0.0000   0.0000
     0.0000   0.0000

          k =-0.1000 0.5000 0.9000 (  1392 PWs)   bands (ev):

   -39.4631 -18.5660  -1.8588  -1.6543  -0.4827  13.9332  14.7223  17.5014
    18.6973  26.6564

     occupation numbers 
     1.0000   1.0000   1.0000   1.0000   1.0000   0.0000   0.0000   0.0000
     0.0000   0.0000

          k =-0.1000-0.5000-0.9000 (  1392 PWs)   bands (ev):

   -39.4631 -18.5660  -1.8588  -1.6543  -0.4827  13.9332  14.7223  17.5014
    18.6973  26.6564

     occupation numbers 
     1.0000   1.0000   1.0000   1.0000   1.0000   0.0000   0.0000   0.0000
     0.0000   0.0000

          k = 0.1000 0.5000-0.9000 (  1392 PWs)   bands (ev):

   -39.4631 -18.5660  -1.8588  -1.6543  -0.4827  13.9332  14.7223  17.5014
    18.6973  26.6564

     occupation numbers 
     1.0000   1.0000   1.0000   1.0000   1.0000   0.0000   0.0000   0.0000
     0.0000   0.0000

          k =-0.9000-0.1000-0.5000 (  1392 PWs)   bands (ev):

   -39.4631 -18.5660  -1.8588  -1.6543  -0.4827  13.9332  14.7223  17.5014
    18.6973  26.6564

     occupation numbers 
     1.0000   1.0000   1.0000   1.0000   1.0000   0.0000   0.0000   0.0000
     0.0000   0.0000

          k = 0.9000-0.1000 0.5000 (  1392 PWs)   bands (ev):

   -39.4631 -18.5660  -1.8588  -1.6543  -0.4827  13.9332  14.7223  17.5014
    18.6973  26.6564

     occupation numbers 
     1.0000   1.0000   1.0000   1.0000   1.0000   0.0000   0.0000   0.0000
     0.0000   0.0000

          k = 0.9000 0.1000-0.5000 (  1392 PWs)   bands (ev):

   -39.4631 -18.5660  -1.8588  -1.6543  -0.4827  13.9332  14.7223  17.5014
    18.6973  26.6564

     occupation numbers 
     1.0000   1.0000   1.0000   1.0000   1.0000   0.0000   0.0000   0.0000
     0.0000   0.0000

          k =-0.9000 0.1000 0.5000 (  1392 PWs)   bands (ev):

   -39.4631 -18.5660  -1.8588  -1.6543  -0.4827  13.9332  14.7223  17.5014
    18.6973  26.6564

     occupation numbers 
     1.0000   1.0000   1.0000   1.0000   1.0000   0.0000   0.0000   0.0000
     0.0000   0.0000

          k =-0.4000-1.0000 0.0000 (  1384 PWs)   bands (ev):

   -39.4616 -18.5404  -2.0994  -1.4957  -0.5685  14.4725  14.8246  16.9494
    18.7838  24.6423

     occupation numbers 
     1.0000   1.0000   1.0000   1.0000   1.0000   0.0000   0.0000   0.0000
     0.0000   0.0000

          k = 0.4000 1.0000 0.0000 (  1384 PWs)   bands (ev):

   -39.4616 -18.5404  -2.0994  -1.4957  -0.5685  14.4725  14.8246  16.9494
    18.7838  24.6423

     occupation numbers 
     1.0000   1.0000   1.0000   1.0000   1.0000   0.0000   0.0000   0.0000
     0.0000   0.0000

          k =-1.0000-0.4000 0.0000 (  1384 PWs)   bands (ev):

   -39.4616 -18.5404  -2.0994  -1.4957  -0.5685  14.4725  14.8246  16.9494
    18.7838  24.6423

     occupation numbers 
     1.0000   1.0000   1.0000   1.0000   1.0000   0.0000   0.0000   0.0000
     0.0000   0.0000

          k = 1.0000 0.4000 0.0000 (  1384 PWs)   bands (ev):

   -39.4616 -18.5404  -2.0994  -1.4957  -0.5685  14.4725  14.8246  16.9494
    18.7838  24.6423

     occupation numbers 
     1.0000   1.0000   1.0000   1.0000   1.0000   0.0000   0.0000   0.0000
     0.0000   0.0000

          k = 0.0000 1.0000-0.4000 (  1384 PWs)   bands (ev):

   -39.4616 -18.5404  -2.0994  -1.4957  -0.5685  14.4725  14.8246  16.9494
    18.7838  24.6423

     occupation numbers 
     1.0000   1.0000   1.0000   1.0000   1.0000   0.0000   0.0000   0.0000
     0.0000   0.0000

          k =-0.0000 1.0000 0.4000 (  1384 PWs)   bands (ev):

   -39.4616 -18.5404  -2.0994  -1.4957  -0.5685  14.4725  14.8246  16.9494
    18.7838  24.6423

     occupation numbers 
     1.0000   1.0000   1.0000   1.0000   1.0000   0.0000   0.0000   0.0000
     0.0000   0.0000

          k = 0.4000-0.0000-1.0000 (  1384 PWs)   bands (ev):

   -39.4616 -18.5404  -2.0994  -1.4957  -0.5685  14.4725  14.8246  16.9494
    18.7838  24.6423

     occupation numbers 
     1.0000   1.0000   1.0000   1.0000   1.0000   0.0000   0.0000   0.0000
     0.0000   0.0000

          k =-0.4000 0.0000-1.0000 (  1384 PWs)   bands (ev):

   -39.4616 -18.5404  -2.0994  -1.4957  -0.5685  14.4725  14.8246  16.9494
    18.7838  24.6423

     occupation numbers 
     1.0000   1.0000   1.0000   1.0000   1.0000   0.0000   0.0000   0.0000
     0.0000   0.0000

          k = 0.0000-0.4000-1.0000 (  1384 PWs)   bands (ev):

   -39.4616 -18.5404  -2.0994  -1.4957  -0.5685  14.4725  14.8246  16.9494
    18.7838  24.6423

     occupation numbers 
     1.0000   1.0000   1.0000   1.0000   1.0000   0.0000   0.0000   0.0000
     0.0000   0.0000

          k = 0.0000 0.4000-1.0000 (  1384 PWs)   bands (ev):

   -39.4616 -18.5404  -2.0994  -1.4957  -0.5685  14.4725  14.8246  16.9494
    18.7838  24.6423

     occupation numbers 
     1.0000   1.0000   1.0000   1.0000   1.0000   0.0000   0.0000   0.0000
     0.0000   0.0000

          k =-1.0000 0.0000-0.4000 (  1384 PWs)   bands (ev):

   -39.4616 -18.5404  -2.0994  -1.4957  -0.5685  14.4725  14.8246  16.9494
    18.7838  24.6423

     occupation numbers 
     1.0000   1.0000   1.0000   1.0000   1.0000   0.0000   0.0000   0.0000
     0.0000   0.0000

          k = 1.0000 0.0000 0.4000 (  1384 PWs)   bands (ev):

   -39.4616 -18.5404  -2.0994  -1.4957  -0.5685  14.4725  14.8246  16.9494
    18.7838  24.6423

     occupation numbers 
     1.0000   1.0000   1.0000   1.0000   1.0000   0.0000   0.0000   0.0000
     0.0000   0.0000

     highest occupied, lowest unoccupied level (ev):     0.2220    8.7709

     Writing all to output data dir ./LiF.save/

     init_run     :      0.16s CPU      0.17s WALL (       1 calls)
     electrons    :     13.95s CPU     14.84s WALL (       1 calls)

     Called by init_run:
     wfcinit      :      0.00s CPU      0.00s WALL (       1 calls)
     wfcinit:atom :      0.02s CPU      0.03s WALL (    1000 calls)
     wfcinit:wfcr :      0.73s CPU      0.81s WALL (    1000 calls)
     potinit      :      0.00s CPU      0.00s WALL (       1 calls)
     hinit0       :      0.13s CPU      0.14s WALL (       1 calls)

     Called by electrons:
     c_bands      :     13.93s CPU     14.81s WALL (       1 calls)
     v_of_rho     :      0.00s CPU      0.00s WALL (       1 calls)
     v_h          :      0.00s CPU      0.00s WALL (       1 calls)
     v_xc         :      0.00s CPU      0.00s WALL (       1 calls)

     Called by c_bands:
     init_us_2    :      0.04s CPU      0.04s WALL (    1000 calls)
     init_us_2:cp :      0.04s CPU      0.04s WALL (    1000 calls)
     cegterg      :     12.58s CPU     13.32s WALL (    1349 calls)

     Called by sum_band:

     Called by *egterg:
     cdiaghg      :      2.76s CPU      2.91s WALL (   21532 calls)
     cegterg:over :      0.79s CPU      0.84s WALL (   20532 calls)
     cegterg:upda :      0.17s CPU      0.18s WALL (   20532 calls)
     cegterg:last :      0.21s CPU      0.23s WALL (   12474 calls)
     h_psi        :      8.83s CPU      9.39s WALL (   22881 calls)
     g_psi        :      0.08s CPU      0.08s WALL (   20532 calls)

     Called by h_psi:
     h_psi:calbec :      0.54s CPU      0.58s WALL (   22881 calls)
     vloc_psi     :      8.02s CPU      8.53s WALL (   22881 calls)
     add_vuspsi   :      0.17s CPU      0.18s WALL (   22881 calls)

     General routines
     calbec       :      0.52s CPU      0.55s WALL (   22881 calls)
     fft          :      0.12s CPU      0.13s WALL (       4 calls)
     fftw         :      7.21s CPU      7.67s WALL (  276114 calls)
     davcio       :      0.02s CPU      0.07s WALL (    2000 calls)

     Parallel routines

     PWSCF        :     15.33s CPU     18.56s WALL


   This run was terminated on:  13:40:42   1Aug2024            

=------------------------------------------------------------------------------=
   JOB DONE.
=------------------------------------------------------------------------------=
